 Entering Gaussian System, Link 0=g16
 Initial command:
 /opt/software/occigen/applications/gaussian/g16/C.01/g16/l1.exe "/scratch/cnt0021/sis6494/enicolas/gaussian/11374471/Gau-57665.inp" -scrdir="/scratch/cnt0021/sis6494/enicolas/gaussian/11374471/"
 Entering Link 1 = /opt/software/occigen/applications/gaussian/g16/C.01/g16/l1.exe PID=     57666.
  
 Copyright (c) 1988-2019, Gaussian, Inc.  All Rights Reserved.
  
 This is part of the Gaussian(R) 16 program.  It is based on
 the Gaussian(R) 09 system (copyright 2009, Gaussian, Inc.),
 the Gaussian(R) 03 system (copyright 2003, Gaussian, Inc.),
 the Gaussian(R) 98 system (copyright 1998, Gaussian, Inc.),
 the Gaussian(R) 94 system (copyright 1995, Gaussian, Inc.),
 the Gaussian 92(TM) system (copyright 1992, Gaussian, Inc.),
 the Gaussian 90(TM) system (copyright 1990, Gaussian, Inc.),
 the Gaussian 88(TM) system (copyright 1988, Gaussian, Inc.),
 the Gaussian 86(TM) system (copyright 1986, Carnegie Mellon
 University), and the Gaussian 82(TM) system (copyright 1983,
 Carnegie Mellon University). Gaussian is a federally registered
 trademark of Gaussian, Inc.
  
 This software contains proprietary and confidential information,
 including trade secrets, belonging to Gaussian, Inc.
  
 This software is provided under written license and may be
 used, copied, transmitted, or stored only in accord with that
 written license.
  
 The following legend is applicable only to US Government
 contracts under FAR:
  
                    RESTRICTED RIGHTS LEGEND
  
 Use, reproduction and disclosure by the US Government is
 subject to restrictions as set forth in subparagraphs (a)
 and (c) of the Commercial Computer Software - Restricted
 Rights clause in FAR 52.227-19.
  
 Gaussian, Inc.
 340 Quinnipiac St., Bldg. 40, Wallingford CT 06492
  
  
 ---------------------------------------------------------------
 Warning -- This program may not be used in any manner that
 competes with the business of Gaussian, Inc. or will provide
 assistance to any competitor of Gaussian, Inc.  The licensee
 of this program is prohibited from giving any competitor of
 Gaussian, Inc. access to this program.  By using this program,
 the user acknowledges that Gaussian, Inc. is engaged in the
 business of creating and licensing software in the field of
 computational chemistry and represents and warrants to the
 licensee that it is not a competitor of Gaussian, Inc. and that
 it will not use this program in any manner prohibited above.
 ---------------------------------------------------------------
  

 Cite this work as:
 Gaussian 16, Revision C.01,
 M. J. Frisch, G. W. Trucks, H. B. Schlegel, G. E. Scuseria, 
 M. A. Robb, J. R. Cheeseman, G. Scalmani, V. Barone, 
 G. A. Petersson, H. Nakatsuji, X. Li, M. Caricato, A. V. Marenich, 
 J. Bloino, B. G. Janesko, R. Gomperts, B. Mennucci, H. P. Hratchian, 
 J. V. Ortiz, A. F. Izmaylov, J. L. Sonnenberg, D. Williams-Young, 
 F. Ding, F. Lipparini, F. Egidi, J. Goings, B. Peng, A. Petrone, 
 T. Henderson, D. Ranasinghe, V. G. Zakrzewski, J. Gao, N. Rega, 
 G. Zheng, W. Liang, M. Hada, M. Ehara, K. Toyota, R. Fukuda, 
 J. Hasegawa, M. Ishida, T. Nakajima, Y. Honda, O. Kitao, H. Nakai, 
 T. Vreven, K. Throssell, J. A. Montgomery, Jr., J. E. Peralta, 
 F. Ogliaro, M. J. Bearpark, J. J. Heyd, E. N. Brothers, K. N. Kudin, 
 V. N. Staroverov, T. A. Keith, R. Kobayashi, J. Normand, 
 K. Raghavachari, A. P. Rendell, J. C. Burant, S. S. Iyengar, 
 J. Tomasi, M. Cossi, J. M. Millam, M. Klene, C. Adamo, R. Cammi, 
 J. W. Ochterski, R. L. Martin, K. Morokuma, O. Farkas, 
 J. B. Foresman, and D. J. Fox, Gaussian, Inc., Wallingford CT, 2019.
 
 ******************************************
 Gaussian 16:  ES64L-G16RevC.01  3-Jul-2019
                25-Nov-2020 
 ******************************************
 %NProcShared=28
 Will use up to   28 processors via shared memory.
 %Mem=53000MB
 -----------------------------
 #rMN15L Def2TZVP/W06 opt freq
 -----------------------------
 1/18=20,19=15,26=3,38=1/1,3;
 2/9=110,12=2,17=6,18=5,40=1/2;
 3/5=44,7=101,11=2,25=1,30=1,71=1,74=-72,82=40,116=1/1,2,3;
 4//1;
 5/5=2,38=5/2;
 6/7=2,8=2,9=2,10=2,28=1/1;
 7//1,2,3,16;
 1/18=20,19=15,26=3/3(2);
 2/9=110/2;
 99//99;
 2/9=110/2;
 3/5=44,7=101,11=2,25=1,30=1,71=1,74=-72,82=40,116=1/1,2,3;
 4/5=5,16=3,69=1/1;
 5/5=2,38=5/2;
 7//1,2,3,16;
 1/18=20,19=15,26=3/3(-5);
 2/9=110/2;
 6/7=2,8=2,9=2,10=2,19=2,28=1/1;
 99/9=1/99;
 -----
 Title
 -----
 Symbolic Z-matrix:
 Charge =  0 Multiplicity = 1
 C                    -0.42634  -0.31118   0.00007 
 C                     0.96986  -0.31121   0.00058 
 C                     1.66796   0.89768  -0.00009 
 C                     0.96989   2.10683  -0.00102 
 C                    -0.42611   2.10686  -0.00142 
 C                    -1.12432   0.89781  -0.00099 
 H                    -0.96954  -1.2521    0.00044 
 H                     1.51293  -1.25221   0.00137 
 H                     2.75441   0.89778   0.00018 
 H                     1.51332   3.04761  -0.00145 
 H                    -0.9694    3.04773  -0.00225 
 H                    -2.21077   0.89797  -0.00132 
 

 GradGradGradGradGradGradGradGradGradGradGradGradGradGradGradGradGradGrad
 Berny optimization.
 Initialization pass.
                           ----------------------------
                           !    Initial Parameters    !
                           ! (Angstroms and Degrees)  !
 --------------------------                            --------------------------
 ! Name  Definition              Value          Derivative Info.                !
 --------------------------------------------------------------------------------
 ! R1    R(1,2)                  1.3962         estimate D2E/DX2                !
 ! R2    R(1,6)                  1.396          estimate D2E/DX2                !
 ! R3    R(1,7)                  1.0865         estimate D2E/DX2                !
 ! R4    R(2,3)                  1.396          estimate D2E/DX2                !
 ! R5    R(2,8)                  1.0865         estimate D2E/DX2                !
 ! R6    R(3,4)                  1.3962         estimate D2E/DX2                !
 ! R7    R(3,9)                  1.0865         estimate D2E/DX2                !
 ! R8    R(4,5)                  1.396          estimate D2E/DX2                !
 ! R9    R(4,10)                 1.0865         estimate D2E/DX2                !
 ! R10   R(5,6)                  1.3962         estimate D2E/DX2                !
 ! R11   R(5,11)                 1.0865         estimate D2E/DX2                !
 ! R12   R(6,12)                 1.0865         estimate D2E/DX2                !
 ! A1    A(2,1,6)              120.0            estimate D2E/DX2                !
 ! A2    A(2,1,7)              119.9965         estimate D2E/DX2                !
 ! A3    A(6,1,7)              120.0035         estimate D2E/DX2                !
 ! A4    A(1,2,3)              120.004          estimate D2E/DX2                !
 ! A5    A(1,2,8)              119.9912         estimate D2E/DX2                !
 ! A6    A(3,2,8)              120.0048         estimate D2E/DX2                !
 ! A7    A(2,3,4)              119.996          estimate D2E/DX2                !
 ! A8    A(2,3,9)              120.0105         estimate D2E/DX2                !
 ! A9    A(4,3,9)              119.9935         estimate D2E/DX2                !
 ! A10   A(3,4,5)              119.9999         estimate D2E/DX2                !
 ! A11   A(3,4,10)             119.9889         estimate D2E/DX2                !
 ! A12   A(5,4,10)             120.0112         estimate D2E/DX2                !
 ! A13   A(4,5,6)              120.0044         estimate D2E/DX2                !
 ! A14   A(4,5,11)             120.0045         estimate D2E/DX2                !
 ! A15   A(6,5,11)             119.9911         estimate D2E/DX2                !
 ! A16   A(1,6,5)              119.9957         estimate D2E/DX2                !
 ! A17   A(1,6,12)             120.0075         estimate D2E/DX2                !
 ! A18   A(5,6,12)             119.9967         estimate D2E/DX2                !
 ! D1    D(6,1,2,3)             -0.0063         estimate D2E/DX2                !
 ! D2    D(6,1,2,8)           -179.9975         estimate D2E/DX2                !
 ! D3    D(7,1,2,3)            179.9902         estimate D2E/DX2                !
 ! D4    D(7,1,2,8)             -0.001          estimate D2E/DX2                !
 ! D5    D(2,1,6,5)             -0.0053         estimate D2E/DX2                !
 ! D6    D(2,1,6,12)          -179.9961         estimate D2E/DX2                !
 ! D7    D(7,1,6,5)            179.9982         estimate D2E/DX2                !
 ! D8    D(7,1,6,12)             0.0074         estimate D2E/DX2                !
 ! D9    D(1,2,3,4)              0.0123         estimate D2E/DX2                !
 ! D10   D(1,2,3,9)           -179.9921         estimate D2E/DX2                !
 ! D11   D(8,2,3,4)           -179.9965         estimate D2E/DX2                !
 ! D12   D(8,2,3,9)             -0.0009         estimate D2E/DX2                !
 ! D13   D(2,3,4,5)             -0.0068         estimate D2E/DX2                !
 ! D14   D(2,3,4,10)           179.9939         estimate D2E/DX2                !
 ! D15   D(9,3,4,5)            179.9977         estimate D2E/DX2                !
 ! D16   D(9,3,4,10)            -0.0016         estimate D2E/DX2                !
 ! D17   D(3,4,5,6)             -0.0048         estimate D2E/DX2                !
 ! D18   D(3,4,5,11)          -179.9933         estimate D2E/DX2                !
 ! D19   D(10,4,5,6)           179.9945         estimate D2E/DX2                !
 ! D20   D(10,4,5,11)            0.006          estimate D2E/DX2                !
 ! D21   D(4,5,6,1)              0.0108         estimate D2E/DX2                !
 ! D22   D(4,5,6,12)          -179.9984         estimate D2E/DX2                !
 ! D23   D(11,5,6,1)           179.9993         estimate D2E/DX2                !
 ! D24   D(11,5,6,12)           -0.0099         estimate D2E/DX2                !
 --------------------------------------------------------------------------------
 Trust Radius=3.00D-01 FncErr=1.00D-07 GrdErr=1.00D-06 EigMax=2.50D+02 EigMin=1.00D-04
 Number of steps in this run=     64 maximum allowed number of steps=    100.
 GradGradGradGradGradGradGradGradGradGradGradGradGradGradGradGradGradGrad

                          Input orientation:                          
 ---------------------------------------------------------------------
 Center     Atomic      Atomic             Coordinates (Angstroms)
 Number     Number       Type             X           Y           Z
 ---------------------------------------------------------------------
      1          6           0       -0.426343   -0.311178    0.000071
      2          6           0        0.969860   -0.311208    0.000584
      3          6           0        1.667960    0.897681   -0.000093
      4          6           0        0.969892    2.106829   -0.001023
      5          6           0       -0.426114    2.106857   -0.001419
      6          6           0       -1.124315    0.897807   -0.000986
      7          1           0       -0.969536   -1.252100    0.000437
      8          1           0        1.512929   -1.252211    0.001366
      9          1           0        2.754412    0.897781    0.000177
     10          1           0        1.513321    3.047608   -0.001450
     11          1           0       -0.969399    3.047727   -0.002253
     12          1           0       -2.210775    0.897974   -0.001321
 ---------------------------------------------------------------------
                    Distance matrix (angstroms):
                    1          2          3          4          5
     1  C    0.000000
     2  C    1.396203   0.000000
     3  C    2.418149   1.395979   0.000000
     4  C    2.792173   2.418038   1.396187   0.000000
     5  C    2.418035   2.792093   2.418110   1.396006   0.000000
     6  C    1.395998   2.418117   2.792275   2.418147   1.396169
     7  H    1.086459   2.155582   3.402638   3.878632   3.402632
     8  H    2.155533   1.086467   2.155475   3.402653   3.878561
     9  H    3.402761   2.155523   1.086452   2.155530   3.402589
    10  H    3.878626   3.402499   2.155482   1.086453   2.155556
    11  H    3.402522   3.878554   3.402700   2.155491   1.086460
    12  H    2.155516   3.402729   3.878735   3.402642   2.155554
                    6          7          8          9         10
     6  C    0.000000
     7  H    2.155472   0.000000
     8  H    3.402593   2.482465   0.000000
     9  H    3.878727   4.299974   2.482689   0.000000
    10  H    3.402759   4.965085   4.299820   2.482351   0.000000
    11  H    2.155495   4.299828   4.965021   4.299889   2.482720
    12  H    1.086460   2.482639   4.299916   4.965187   4.299979
                   11         12
    11  H    0.000000
    12  H    2.482429   0.000000
 Stoichiometry    C6H6
 Framework group  C1[X(C6H6)]
 Deg. of freedom    30
 Full point group                 C1      NOp   1
 Largest Abelian subgroup         C1      NOp   1
 Largest concise Abelian subgroup C1      NOp   1
                         Standard orientation:                         
 ---------------------------------------------------------------------
 Center     Atomic      Atomic             Coordinates (Angstroms)
 Number     Number       Type             X           Y           Z
 ---------------------------------------------------------------------
      1          6           0        0.907318   -1.061053   -0.000002
      2          6           0       -0.465374   -1.316198   -0.000068
      3          6           0       -1.372611   -0.255218    0.000058
      4          6           0       -0.907232    1.061125   -0.000010
      5          6           0        0.465267    1.316233   -0.000061
      6          6           0        1.372633    0.255113    0.000057
      7          1           0        1.613292   -1.886882    0.000060
      8          1           0       -0.827360   -2.340590   -0.000074
      9          1           0       -2.440791   -0.453638    0.000136
     10          1           0       -1.613412    1.886770   -0.000011
     11          1           0        0.827489    2.340533   -0.000003
     12          1           0        2.440771    0.453796    0.000044
 ---------------------------------------------------------------------
 Rotational constants (GHZ):           5.6914809           5.6908936           2.8455936
 Standard basis: def2TZVP (5D, 7F)
 There are   252 symmetry adapted cartesian basis functions of A   symmetry.
 There are   222 symmetry adapted basis functions of A   symmetry.
   222 basis functions,   354 primitive gaussians,   252 cartesian basis functions
    21 alpha electrons       21 beta electrons
       nuclear repulsion energy       203.2672958386 Hartrees.
 NAtoms=   12 NActive=   12 NUniq=   12 SFac= 1.00D+00 NAtFMM=   60 NAOKFM=F Big=F
 Integral buffers will be    131072 words long.
 Raffenetti 2 integral format.
 Two-electron integral symmetry is turned on.
 Standard density basis: W06 (5D, 7F)
   360 Density fitting functions
 There are   360 symmetry adapted density basis functions of A   symmetry.
 One-electron integrals computed using PRISM.
   1 Symmetry operations used in ECPInt.
 ECPInt:  NShTT=    4095 NPrTT=   12396 LenC2=    4075 LenP2D=   10419.
 LDataN:  DoStor=T MaxTD1= 6 Len=  172
 NBasis=   222 RedAO= T EigKep=  1.04D-05  NBF=   222
 NBsUse=   222 1.00D-06 EigRej= -1.00D+00 NBFU=   222
 NBasis=      222 NBas6D=      252 NTT=       24753   NTT6D=    31878
 NDBShl=      120 NDBF=        360 NDBF6D=      438  NNucDB=        0
 IDenFi=        2 ISolve=        0 FullAP=F BlkAPC=T NucTyp=        0
 TolInv= 1.00D-06 TolIt=  1.00D-10 IR12=0.
 FoFCou: FMM=F IPFlag=           0 FMFlag=           0 FMFlg1=           0
         NFxFlg=           0 DoJE=F BraDBF=T KetDBF=T FulRan=T
         wScrn=  0.000000 ICntrl=       600 IOpCl=  3 I1Cent=           6 NGrid=           0
         NMat0=    1 NMatS0=    438 NMatT0=    0 NMatD0=    1 NMtDS0=    0 NMtDT0=    0
 Petite list used in FoFCou.
 DBF EigKep=  1.12D-05 EigRej= -1.00D+00
 NDBF=    360  NBFD=   360
 NRank=   360 NBFDU=   360
 S*AI*S=  6.71361572239    
 ExpMin= 9.52D-02 ExpMax= 1.36D+04 ExpMxC= 4.63D+02 IAcc=3 IRadAn=         5 AccDes= 0.00D+00
 Harris functional with IExCor= 1009 and IRadAn=       5 diagonalized for initial guess.
 HarFok:  IExCor= 1009 AccDes= 0.00D+00 IRadAn=         5 IDoV= 1 UseB2=F ITyADJ=14
 ICtDFT=  3500011 ScaDFX=  1.000000  1.000000  1.000000  1.000000
 FoFCou: FMM=F IPFlag=           0 FMFlag=      100000 FMFlg1=           0
         NFxFlg=           0 DoJE=T BraDBF=F KetDBF=T FulRan=T
         wScrn=  0.000000 ICntrl=       500 IOpCl=  0 I1Cent=   200000004 NGrid=           0
         NMat0=    1 NMatS0=      1 NMatT0=    0 NMatD0=    1 NMtDS0=    0 NMtDT0=    0
 Petite list used in FoFCou.
 Requested convergence on RMS density matrix=1.00D-08 within 128 cycles.
 Requested convergence on MAX density matrix=1.00D-06.
 Requested convergence on             energy=1.00D-06.
 No special actions if energy rises.
 FoFCou: FMM=F IPFlag=           0 FMFlag=      100000 FMFlg1=           0
         NFxFlg=           0 DoJE=T BraDBF=T KetDBF=F FulRan=T
         wScrn=  0.000000 ICntrl=       500 IOpCl=  0 I1Cent=           5 NGrid=           0
         NMat0=    1 NMatS0=      1 NMatT0=    0 NMatD0=    1 NMtDS0=    0 NMtDT0=    0
 Symmetry not used in FoFCou.
 Initial convergence to 1.0D-05 achieved.  Increase integral accuracy.
 SCF Done:  E(RMN15L) =  -232.122050377     A.U. after   12 cycles
            NFock= 12  Conv=0.38D-08     -V/T= 2.0057

 **********************************************************************

            Population analysis using the SCF Density.

 **********************************************************************

 Orbital symmetries:
       Occupied  (A) (A) (A) (A) (A) (A) (A) (A) (A) (A) (A) (A)
                 (A) (A) (A) (A) (A) (A) (A) (A) (A)
       Virtual   (A) (A) (A) (A) (A) (A) (A) (A) (A) (A) (A) (A)
                 (A) (A) (A) (A) (A) (A) (A) (A) (A) (A) (A) (A)
                 (A) (A) (A) (A) (A) (A) (A) (A) (A) (A) (A) (A)
                 (A) (A) (A) (A) (A) (A) (A) (A) (A) (A) (A) (A)
                 (A) (A) (A) (A) (A) (A) (A) (A) (A) (A) (A) (A)
                 (A) (A) (A) (A) (A) (A) (A) (A) (A) (A) (A) (A)
                 (A) (A) (A) (A) (A) (A) (A) (A) (A) (A) (A) (A)
                 (A) (A) (A) (A) (A) (A) (A) (A) (A) (A) (A) (A)
                 (A) (A) (A) (A) (A) (A) (A) (A) (A) (A) (A) (A)
                 (A) (A) (A) (A) (A) (A) (A) (A) (A) (A) (A) (A)
                 (A) (A) (A) (A) (A) (A) (A) (A) (A) (A) (A) (A)
                 (A) (A) (A) (A) (A) (A) (A) (A) (A) (A) (A) (A)
                 (A) (A) (A) (A) (A) (A) (A) (A) (A) (A) (A) (A)
                 (A) (A) (A) (A) (A) (A) (A) (A) (A) (A) (A) (A)
                 (A) (A) (A) (A) (A) (A) (A) (A) (A) (A) (A) (A)
                 (A) (A) (A) (A) (A) (A) (A) (A) (A) (A) (A) (A)
                 (A) (A) (A) (A) (A) (A) (A) (A) (A)
 The electronic state is 1-A.
 Alpha  occ. eigenvalues --  -10.13813 -10.13794 -10.13794 -10.13749 -10.13748
 Alpha  occ. eigenvalues --  -10.13726  -0.85477  -0.74293  -0.74291  -0.59109
 Alpha  occ. eigenvalues --   -0.59108  -0.50429  -0.44208  -0.42355  -0.39783
 Alpha  occ. eigenvalues --   -0.39781  -0.35016  -0.31724  -0.31721  -0.23745
 Alpha  occ. eigenvalues --   -0.23744
 Alpha virt. eigenvalues --   -0.02455  -0.02454   0.04110   0.07949   0.07950
 Alpha virt. eigenvalues --    0.10667   0.10668   0.12535   0.13725   0.15226
 Alpha virt. eigenvalues --    0.21599   0.21921   0.21921   0.22460   0.24116
 Alpha virt. eigenvalues --    0.24116   0.25994   0.25994   0.26728   0.26730
 Alpha virt. eigenvalues --    0.32443   0.34313   0.34314   0.36707   0.36708
 Alpha virt. eigenvalues --    0.37169   0.41478   0.41479   0.42394   0.44005
 Alpha virt. eigenvalues --    0.44006   0.44974   0.46217   0.47460   0.49716
 Alpha virt. eigenvalues --    0.49717   0.51050   0.52381   0.52382   0.65333
 Alpha virt. eigenvalues --    0.66769   0.66770   0.70804   0.71227   0.75858
 Alpha virt. eigenvalues --    0.75863   0.78467   0.78469   0.81506   0.86046
 Alpha virt. eigenvalues --    0.86048   0.87835   0.92666   0.92693   1.05697
 Alpha virt. eigenvalues --    1.05699   1.06151   1.06152   1.10308   1.10310
 Alpha virt. eigenvalues --    1.23207   1.24796   1.24797   1.26844   1.26846
 Alpha virt. eigenvalues --    1.29033   1.29035   1.29673   1.29677   1.36858
 Alpha virt. eigenvalues --    1.45862   1.46974   1.51832   1.53836   1.53838
 Alpha virt. eigenvalues --    1.58453   1.58454   1.61298   1.61299   1.69864
 Alpha virt. eigenvalues --    1.71059   1.77667   1.77761   1.80233   1.80235
 Alpha virt. eigenvalues --    1.80906   1.80906   1.81459   1.81468   1.87609
 Alpha virt. eigenvalues --    1.98939   2.02656   2.02660   2.16470   2.16474
 Alpha virt. eigenvalues --    2.19642   2.21740   2.22243   2.22245   2.27184
 Alpha virt. eigenvalues --    2.27194   2.34925   2.36949   2.36951   2.40337
 Alpha virt. eigenvalues --    2.64934   2.65235   2.65236   2.68610   2.68778
 Alpha virt. eigenvalues --    2.70284   2.72281   2.72282   2.81018   2.81022
 Alpha virt. eigenvalues --    2.81970   2.81975   2.83556   2.83562   2.87947
 Alpha virt. eigenvalues --    2.89191   2.89194   2.95038   2.97583   2.99222
 Alpha virt. eigenvalues --    2.99226   3.00089   3.00809   3.00812   3.06623
 Alpha virt. eigenvalues --    3.06626   3.08104   3.17881   3.27095   3.27097
 Alpha virt. eigenvalues --    3.29277   3.29279   3.31200   3.31205   3.31650
 Alpha virt. eigenvalues --    3.31652   3.36635   3.43450   3.44561   3.44564
 Alpha virt. eigenvalues --    3.46114   3.46118   3.48643   3.53367   3.55907
 Alpha virt. eigenvalues --    3.55914   3.55919   3.64508   3.64516   3.65462
 Alpha virt. eigenvalues --    3.69184   3.72603   3.72604   3.85323   3.85329
 Alpha virt. eigenvalues --    3.85813   3.98870   3.98880   4.01830   4.02073
 Alpha virt. eigenvalues --    4.14972   4.24898   4.24901   4.31252   4.31957
 Alpha virt. eigenvalues --    4.31961   4.37204   4.45300   4.45304   4.46774
 Alpha virt. eigenvalues --    4.48171   4.48179   4.52485   4.52498   4.55967
 Alpha virt. eigenvalues --    4.55974   4.89487   4.89494   4.91716   4.96100
 Alpha virt. eigenvalues --    5.08885   5.08888   5.17147   5.17160   5.51101
 Alpha virt. eigenvalues --    5.51104   5.57558   5.57837   5.71393   5.99794
 Alpha virt. eigenvalues --   22.13531  22.79041  22.79048  22.88373  22.88378
 Alpha virt. eigenvalues --   23.30309
          Condensed to atoms (all electrons):
               1          2          3          4          5          6
     1  C    4.663139   0.555664   0.014173  -0.048940   0.014192   0.555947
     2  C    0.555664   4.662774   0.555873   0.014196  -0.048984   0.014172
     3  C    0.014173   0.555873   4.662707   0.555654   0.014170  -0.048939
     4  C   -0.048940   0.014196   0.555654   4.663139   0.555960   0.014177
     5  C    0.014192  -0.048984   0.014170   0.555960   4.662770   0.555576
     6  C    0.555947   0.014172  -0.048939   0.014177   0.555576   4.662713
     7  H    0.415902  -0.059392   0.006690   0.001288   0.006695  -0.059388
     8  H   -0.059419   0.415926  -0.059404   0.006692   0.001290   0.006688
     9  H    0.006691  -0.059395   0.415931  -0.059416   0.006689   0.001288
    10  H    0.001287   0.006692  -0.059395   0.415905  -0.059388   0.006695
    11  H    0.006689   0.001289   0.006693  -0.059416   0.415929  -0.059411
    12  H   -0.059409   0.006692   0.001289   0.006686  -0.059398   0.415929
               7          8          9         10         11         12
     1  C    0.415902  -0.059419   0.006691   0.001287   0.006689  -0.059409
     2  C   -0.059392   0.415926  -0.059395   0.006692   0.001289   0.006692
     3  C    0.006690  -0.059404   0.415931  -0.059395   0.006693   0.001289
     4  C    0.001288   0.006692  -0.059416   0.415905  -0.059416   0.006686
     5  C    0.006695   0.001290   0.006689  -0.059388   0.415929  -0.059398
     6  C   -0.059388   0.006688   0.001288   0.006695  -0.059411   0.415929
     7  H    0.641746  -0.009079  -0.000590   0.000184  -0.000591  -0.009083
     8  H   -0.009079   0.641768  -0.009082  -0.000591   0.000185  -0.000591
     9  H   -0.000590  -0.009082   0.641731  -0.009077  -0.000591   0.000184
    10  H    0.000184  -0.000591  -0.009077   0.641747  -0.009086  -0.000590
    11  H   -0.000591   0.000185  -0.000591  -0.009086   0.641771  -0.009075
    12  H   -0.009083  -0.000591   0.000184  -0.000590  -0.009075   0.641728
 Mulliken charges:
               1
     1  C   -0.065917
     2  C   -0.065509
     3  C   -0.065442
     4  C   -0.065924
     5  C   -0.065501
     6  C   -0.065447
     7  H    0.065618
     8  H    0.065616
     9  H    0.065637
    10  H    0.065617
    11  H    0.065614
    12  H    0.065638
 Sum of Mulliken charges =  -0.00000
 Mulliken charges with hydrogens summed into heavy atoms:
               1
     1  C   -0.000299
     2  C    0.000107
     3  C    0.000195
     4  C   -0.000307
     5  C    0.000112
     6  C    0.000191
 Electronic spatial extent (au):  <R**2>=            461.4003
 Charge=             -0.0000 electrons
 Dipole moment (field-independent basis, Debye):
    X=             -0.0000    Y=              0.0000    Z=              0.0001  Tot=              0.0001
 Quadrupole moment (field-independent basis, Debye-Ang):
   XX=            -32.8125   YY=            -32.8145   ZZ=            -40.3342
   XY=             -0.0003   XZ=             -0.0001   YZ=             -0.0000
 Traceless Quadrupole moment (field-independent basis, Debye-Ang):
   XX=              2.5079   YY=              2.5059   ZZ=             -5.0138
   XY=             -0.0003   XZ=             -0.0001   YZ=             -0.0000
 Octapole moment (field-independent basis, Debye-Ang**2):
  XXX=             -0.0016  YYY=             -0.0025  ZZZ=              0.0002  XYY=              0.0015
  XXY=              0.0026  XXZ=              0.0009  XZZ=             -0.0000  YZZ=              0.0001
  YYZ=              0.0001  XYZ=             -0.0001
 Hexadecapole moment (field-independent basis, Debye-Ang**3):
 XXXX=           -283.0892 YYYY=           -283.0818 ZZZZ=            -47.3605 XXXY=             -0.0017
 XXXZ=             -0.0011 YYYX=             -0.0018 YYYZ=              0.0004 ZZZX=             -0.0001
 ZZZY=             -0.0000 XXYY=            -94.3616 XXZZ=            -64.6455 YYZZ=            -64.6414
 XXYZ=             -0.0005 YYXZ=              0.0007 ZZXY=             -0.0000
 N-N= 2.032672958386D+02 E-N=-9.435990077399D+02  KE= 2.308041310883D+02
   1 Symmetry operations used in ECPInt.
 ECPInt:  NShTT=    4095 NPrTT=   12396 LenC2=    4075 LenP2D=   10419.
 LDataN:  DoStor=T MaxTD1= 7 Len=  274
 Calling FoFJK, ICntrl=      2527 FMM=F ISym2X=0 I1Cent= 4 IOpClX= 0 NMat=1 NMatS=1 NMatT=0.
 ***** Axes restored to original set *****
 -------------------------------------------------------------------
 Center     Atomic                   Forces (Hartrees/Bohr)
 Number     Number              X              Y              Z
 -------------------------------------------------------------------
      1        6           0.000832894    0.001220752   -0.000001520
      2        6          -0.000796296    0.001173272   -0.000015608
      3        6          -0.001458366    0.000108123    0.000011738
      4        6          -0.000670966   -0.001316573   -0.000000885
      5        6           0.000635312   -0.001266119   -0.000013014
      6        6           0.001454381    0.000072424    0.000014501
      7        1          -0.002779800   -0.004813601    0.000005243
      8        1           0.002780044   -0.004809454    0.000004448
      9        1           0.005563670   -0.000012428    0.000003453
     10        1           0.002765842    0.004826314   -0.000003460
     11        1          -0.002768815    0.004821985    0.000000769
     12        1          -0.005557899   -0.000004696   -0.000005665
 -------------------------------------------------------------------
 Cartesian Forces:  Max     0.005563670 RMS     0.002345848

 GradGradGradGradGradGradGradGradGradGradGradGradGradGradGradGradGradGrad
 Berny optimization.
 FormGI is forming the generalized inverse of G from B-inverse, IUseBI=4.
 Internal  Forces:  Max     0.005563669 RMS     0.002304985
 Search for a local minimum.
 Step number   1 out of a maximum of   64
 All quantities printed in internal units (Hartrees-Bohrs-Radians)
 Mixed Optimization -- RFO/linear search
 Second derivative matrix not updated -- first step.
 ITU=  0
     Eigenvalues ---    0.02140   0.02140   0.02140   0.02140   0.02140
     Eigenvalues ---    0.02140   0.02141   0.02141   0.02141   0.16000
     Eigenvalues ---    0.16000   0.16000   0.16000   0.16000   0.16000
     Eigenvalues ---    0.22000   0.22000   0.22000   0.35224   0.35225
     Eigenvalues ---    0.35225   0.35225   0.35226   0.35226   0.41969
     Eigenvalues ---    0.41972   0.46258   0.46273   0.46276   0.46291
 RFO step:  Lambda=-7.44267546D-04 EMin= 2.13966592D-02
 Linear search not attempted -- first point.
 Iteration  1 RMS(Cart)=  0.00872365 RMS(Int)=  0.00000045
 Iteration  2 RMS(Cart)=  0.00000048 RMS(Int)=  0.00000001
 Variable       Old X    -DE/DX   Delta X   Delta X   Delta X     New X
                                 (Linear)    (Quad)   (Total)
    R1        2.63844   0.00404   0.00000   0.00872   0.00872   2.64716
    R2        2.63805   0.00417   0.00000   0.00900   0.00900   2.64705
    R3        2.05311   0.00556   0.00000   0.01575   0.01575   2.06886
    R4        2.63802   0.00417   0.00000   0.00898   0.00898   2.64700
    R5        2.05313   0.00556   0.00000   0.01574   0.01574   2.06886
    R6        2.63841   0.00408   0.00000   0.00880   0.00880   2.64721
    R7        2.05310   0.00556   0.00000   0.01576   0.01576   2.06886
    R8        2.63807   0.00414   0.00000   0.00894   0.00894   2.64700
    R9        2.05310   0.00556   0.00000   0.01576   0.01576   2.06886
   R10        2.63838   0.00407   0.00000   0.00878   0.00878   2.64716
   R11        2.05311   0.00556   0.00000   0.01575   0.01575   2.06886
   R12        2.05311   0.00556   0.00000   0.01575   0.01575   2.06886
    A1        2.09439   0.00002   0.00000   0.00007   0.00007   2.09446
    A2        2.09433  -0.00000   0.00000  -0.00001  -0.00001   2.09433
    A3        2.09446  -0.00001   0.00000  -0.00006  -0.00006   2.09439
    A4        2.09446  -0.00002   0.00000  -0.00010  -0.00010   2.09436
    A5        2.09424   0.00001   0.00000   0.00005   0.00005   2.09429
    A6        2.09448   0.00001   0.00000   0.00005   0.00005   2.09453
    A7        2.09432   0.00001   0.00000   0.00003   0.00003   2.09436
    A8        2.09458  -0.00002   0.00000  -0.00012  -0.00012   2.09446
    A9        2.09428   0.00001   0.00000   0.00009   0.00009   2.09437
   A10        2.09439   0.00001   0.00000   0.00007   0.00007   2.09446
   A11        2.09420   0.00001   0.00000   0.00006   0.00006   2.09427
   A12        2.09459  -0.00002   0.00000  -0.00013  -0.00013   2.09446
   A13        2.09447  -0.00002   0.00000  -0.00011  -0.00011   2.09436
   A14        2.09447  -0.00001   0.00000  -0.00005  -0.00005   2.09442
   A15        2.09424   0.00003   0.00000   0.00016   0.00016   2.09440
   A16        2.09432   0.00001   0.00000   0.00004   0.00004   2.09436
   A17        2.09453  -0.00001   0.00000  -0.00003  -0.00003   2.09449
   A18        2.09434  -0.00000   0.00000  -0.00001  -0.00001   2.09433
    D1       -0.00011   0.00000   0.00000   0.00015   0.00015   0.00004
    D2       -3.14155  -0.00000   0.00000  -0.00006  -0.00006   3.14158
    D3        3.14142   0.00000   0.00000   0.00020   0.00020  -3.14156
    D4       -0.00002  -0.00000   0.00000  -0.00001  -0.00001  -0.00002
    D5       -0.00009   0.00000   0.00000   0.00010   0.00010   0.00001
    D6       -3.14152  -0.00000   0.00000  -0.00007  -0.00007   3.14159
    D7        3.14156   0.00000   0.00000   0.00005   0.00005  -3.14158
    D8        0.00013  -0.00000   0.00000  -0.00012  -0.00012   0.00001
    D9        0.00022  -0.00001   0.00000  -0.00028  -0.00028  -0.00006
   D10       -3.14146  -0.00000   0.00000  -0.00016  -0.00016   3.14157
   D11       -3.14153  -0.00000   0.00000  -0.00007  -0.00007   3.14158
   D12       -0.00002   0.00000   0.00000   0.00004   0.00004   0.00003
   D13       -0.00012   0.00000   0.00000   0.00016   0.00016   0.00004
   D14        3.14149   0.00000   0.00000   0.00012   0.00012  -3.14158
   D15        3.14155   0.00000   0.00000   0.00004   0.00004  -3.14159
   D16       -0.00003   0.00000   0.00000   0.00001   0.00001  -0.00002
   D17       -0.00008   0.00000   0.00000   0.00009   0.00009   0.00001
   D18       -3.14148  -0.00000   0.00000  -0.00013  -0.00013   3.14158
   D19        3.14150   0.00000   0.00000   0.00013   0.00013  -3.14156
   D20        0.00010  -0.00000   0.00000  -0.00010  -0.00010   0.00001
   D21        0.00019  -0.00000   0.00000  -0.00022  -0.00022  -0.00003
   D22       -3.14156  -0.00000   0.00000  -0.00005  -0.00005   3.14157
   D23        3.14158   0.00000   0.00000   0.00000   0.00000   3.14158
   D24       -0.00017   0.00000   0.00000   0.00017   0.00017   0.00000
         Item               Value     Threshold  Converged?
 Maximum Force            0.005564     0.000450     NO 
 RMS     Force            0.002305     0.000300     NO 
 Maximum Displacement     0.024582     0.001800     NO 
 RMS     Displacement     0.008724     0.001200     NO 
 Predicted change in Energy=-3.728650D-04
 GradGradGradGradGradGradGradGradGradGradGradGradGradGradGradGradGradGrad

                          Input orientation:                          
 ---------------------------------------------------------------------
 Center     Atomic      Atomic             Coordinates (Angstroms)
 Number     Number       Type             X           Y           Z
 ---------------------------------------------------------------------
      1          6           0       -0.428605   -0.315245    0.000061
      2          6           0        0.972214   -0.315346    0.000487
      3          6           0        1.672628    0.897696   -0.000032
      4          6           0        0.972210    2.110865   -0.001053
      5          6           0       -0.428524    2.110965   -0.001506
      6          6           0       -1.128979    0.897850   -0.000930
      7          1           0       -0.976006   -1.263360    0.000495
      8          1           0        1.519448   -1.263561    0.001275
      9          1           0        2.767420    0.897719    0.000323
     10          1           0        1.519733    3.058909   -0.001475
     11          1           0       -0.975877    3.059112   -0.002290
     12          1           0       -2.223771    0.897963   -0.001265
 ---------------------------------------------------------------------
                    Distance matrix (angstroms):
                    1          2          3          4          5
     1  C    0.000000
     2  C    1.400819   0.000000
     3  C    2.426191   1.400732   0.000000
     4  C    2.801481   2.426212   1.400844   0.000000
     5  C    2.426211   2.801618   2.426286   1.400734   0.000000
     6  C    1.400759   2.426286   2.801607   2.426191   1.400817
     7  H    1.094792   2.166631   3.418395   3.896272   3.418451
     8  H    2.166614   1.094795   2.166679   3.418512   3.896413
     9  H    3.418459   2.166632   1.094792   2.166680   3.418483
    10  H    3.896272   3.418389   2.166615   1.094792   2.166634
    11  H    3.418450   3.896413   3.418523   2.166614   1.094796
    12  H    2.166679   3.418544   3.896399   3.418395   2.166630
                    6          7          8          9         10
     6  C    0.000000
     7  H    2.166617   0.000000
     8  H    3.418460   2.495454   0.000000
     9  H    3.896400   4.322442   2.495710   0.000000
    10  H    3.418458   4.991064   4.322471   2.495490   0.000000
    11  H    2.166679   4.322473   4.991209   4.322487   2.495610
    12  H    1.094792   2.495644   4.322486   4.991192   4.322443
                   11         12
    11  H    0.000000
    12  H    2.495557   0.000000
 Stoichiometry    C6H6
 Framework group  C1[X(C6H6)]
 Deg. of freedom    30
 Full point group                 C1      NOp   1
 Largest Abelian subgroup         C1      NOp   1
 Largest concise Abelian subgroup C1      NOp   1
                         Standard orientation:                         
 ---------------------------------------------------------------------
 Center     Atomic      Atomic             Coordinates (Angstroms)
 Number     Number       Type             X           Y           Z
 ---------------------------------------------------------------------
      1          6           0       -0.184565   -1.388528   -0.000002
      2          6           0       -1.294866   -0.534404    0.000018
      3          6           0       -1.110289    0.854114   -0.000016
      4          6           0        0.184614    1.388521    0.000005
      5          6           0        1.294847    0.534449    0.000011
      6          6           0        1.110258   -0.854153   -0.000010
      7          1           0       -0.328865   -2.473768   -0.000003
      8          1           0       -2.306795   -0.952228    0.000011
      9          1           0       -1.977967    1.521725   -0.000023
     10          1           0        0.328775    2.473780   -0.000006
     11          1           0        2.306829    0.952146    0.000014
     12          1           0        1.978020   -1.521655   -0.000024
 ---------------------------------------------------------------------
 Rotational constants (GHZ):           5.6488741           5.6484252           2.8243248
 Standard basis: def2TZVP (5D, 7F)
 There are   252 symmetry adapted cartesian basis functions of A   symmetry.
 There are   222 symmetry adapted basis functions of A   symmetry.
   222 basis functions,   354 primitive gaussians,   252 cartesian basis functions
    21 alpha electrons       21 beta electrons
       nuclear repulsion energy       202.4553603185 Hartrees.
 NAtoms=   12 NActive=   12 NUniq=   12 SFac= 1.00D+00 NAtFMM=   60 NAOKFM=F Big=F
 Integral buffers will be    131072 words long.
 Raffenetti 2 integral format.
 Two-electron integral symmetry is turned on.
 Standard density basis: W06 (5D, 7F)
   360 Density fitting functions
 There are   360 symmetry adapted density basis functions of A   symmetry.
 One-electron integrals computed using PRISM.
   1 Symmetry operations used in ECPInt.
 ECPInt:  NShTT=    4095 NPrTT=   12396 LenC2=    4075 LenP2D=   10419.
 LDataN:  DoStor=T MaxTD1= 6 Len=  172
 NBasis=   222 RedAO= T EigKep=  1.09D-05  NBF=   222
 NBsUse=   222 1.00D-06 EigRej= -1.00D+00 NBFU=   222
 NBasis=      222 NBas6D=      252 NTT=       24753   NTT6D=    31878
 NDBShl=      120 NDBF=        360 NDBF6D=      438  NNucDB=        0
 IDenFi=        2 ISolve=        0 FullAP=F BlkAPC=T NucTyp=        0
 TolInv= 1.00D-06 TolIt=  1.00D-10 IR12=0.
 FoFCou: FMM=F IPFlag=           0 FMFlag=           0 FMFlg1=           0
         NFxFlg=           0 DoJE=F BraDBF=T KetDBF=T FulRan=T
         wScrn=  0.000000 ICntrl=       600 IOpCl=  3 I1Cent=           6 NGrid=           0
         NMat0=    1 NMatS0=    438 NMatT0=    0 NMatD0=    1 NMtDS0=    0 NMtDT0=    0
 Petite list used in FoFCou.
 DBF EigKep=  1.16D-05 EigRej= -1.00D+00
 NDBF=    360  NBFD=   360
 NRank=   360 NBFDU=   360
 S*AI*S=  6.72692024334    
 Initial guess from the checkpoint file:  "/scratch/cnt0021/sis6494/enicolas/gaussian/11374471/Gau-57666.chk"
 B after Tr=    -0.000000   -0.000000    0.000000
         Rot=    0.913180    0.000000    0.000000    0.407556 Ang=  48.10 deg.
 Recovered     1 saved fitting vectors from chk file.
 ExpMin= 9.52D-02 ExpMax= 1.36D+04 ExpMxC= 4.63D+02 IAcc=3 IRadAn=         5 AccDes= 0.00D+00
 Harris functional with IExCor= 1009 and IRadAn=       5 diagonalized for initial guess.
 HarFok:  IExCor= 1009 AccDes= 0.00D+00 IRadAn=         5 IDoV= 1 UseB2=F ITyADJ=14
 ICtDFT=  3500011 ScaDFX=  1.000000  1.000000  1.000000  1.000000
 FoFCou: FMM=F IPFlag=           0 FMFlag=      100000 FMFlg1=           0
         NFxFlg=           0 DoJE=T BraDBF=F KetDBF=T FulRan=T
         wScrn=  0.000000 ICntrl=       500 IOpCl=  0 I1Cent=   200000004 NGrid=           0
         NMat0=    1 NMatS0=      1 NMatT0=    0 NMatD0=    1 NMtDS0=    0 NMtDT0=    0
 Petite list used in FoFCou.
 Requested convergence on RMS density matrix=1.00D-08 within 128 cycles.
 Requested convergence on MAX density matrix=1.00D-06.
 Requested convergence on             energy=1.00D-06.
 No special actions if energy rises.
 FoFCou: FMM=F IPFlag=           0 FMFlag=      100000 FMFlg1=           0
         NFxFlg=           0 DoJE=T BraDBF=T KetDBF=F FulRan=T
         wScrn=  0.000000 ICntrl=       500 IOpCl=  0 I1Cent=           5 NGrid=           0
         NMat0=    1 NMatS0=      1 NMatT0=    0 NMatD0=    1 NMtDS0=    0 NMtDT0=    0
 Symmetry not used in FoFCou.
 Initial convergence to 1.0D-05 achieved.  Increase integral accuracy.
 SCF Done:  E(RMN15L) =  -232.122409204     A.U. after   10 cycles
            NFock= 10  Conv=0.56D-08     -V/T= 2.0063
   1 Symmetry operations used in ECPInt.
 ECPInt:  NShTT=    4095 NPrTT=   12396 LenC2=    4075 LenP2D=   10419.
 LDataN:  DoStor=T MaxTD1= 7 Len=  274
 Calling FoFJK, ICntrl=      2527 FMM=F ISym2X=0 I1Cent= 4 IOpClX= 0 NMat=1 NMatS=1 NMatT=0.
 ***** Axes restored to original set *****
 -------------------------------------------------------------------
 Center     Atomic                   Forces (Hartrees/Bohr)
 Number     Number              X              Y              Z
 -------------------------------------------------------------------
      1        6           0.000201492    0.000318859   -0.000001563
      2        6          -0.000231476    0.000321588    0.000004555
      3        6          -0.000383969    0.000005529   -0.000004516
      4        6          -0.000131727   -0.000359194    0.000002153
      5        6           0.000162723   -0.000360653    0.000001727
      6        6           0.000383471    0.000073952   -0.000001175
      7        1           0.000124884    0.000218153   -0.000000064
      8        1          -0.000118657    0.000226392   -0.000000855
      9        1          -0.000252525    0.000000282    0.000000124
     10        1          -0.000133885   -0.000213012   -0.000000329
     11        1           0.000127437   -0.000221709   -0.000000029
     12        1           0.000252233   -0.000010189   -0.000000029
 -------------------------------------------------------------------
 Cartesian Forces:  Max     0.000383969 RMS     0.000189072

 GradGradGradGradGradGradGradGradGradGradGradGradGradGradGradGradGradGrad
 Berny optimization.
 Using GEDIIS/GDIIS optimizer.
 FormGI is forming the generalized inverse of G from B-inverse, IUseBI=4.
 Internal  Forces:  Max     0.000670322 RMS     0.000228979
 Search for a local minimum.
 Step number   2 out of a maximum of   64
 All quantities printed in internal units (Hartrees-Bohrs-Radians)
 Mixed Optimization -- En-DIIS/RFO-DIIS
 Update second derivatives using D2CorX and points    1    2
 DE= -3.59D-04 DEPred=-3.73D-04 R= 9.62D-01
 TightC=F SS=  1.41D+00  RLast= 4.43D-02 DXNew= 5.0454D-01 1.3285D-01
 Trust test= 9.62D-01 RLast= 4.43D-02 DXMaxT set to 3.00D-01
 ITU=  1  0
 Use linear search instead of GDIIS.
     Eigenvalues ---    0.02140   0.02140   0.02140   0.02140   0.02140
     Eigenvalues ---    0.02141   0.02141   0.02141   0.02141   0.16000
     Eigenvalues ---    0.16000   0.16000   0.16000   0.16000   0.16000
     Eigenvalues ---    0.22000   0.22000   0.22000   0.35224   0.35225
     Eigenvalues ---    0.35225   0.35225   0.35226   0.35280   0.41993
     Eigenvalues ---    0.41996   0.46273   0.46273   0.46276   0.49895
 RFO step:  Lambda=-1.70740483D-06 EMin= 2.13966592D-02
 Quartic linear search produced a step of -0.06492.
 Iteration  1 RMS(Cart)=  0.00070058 RMS(Int)=  0.00000001
 Iteration  2 RMS(Cart)=  0.00000001 RMS(Int)=  0.00000000
 Variable       Old X    -DE/DX   Delta X   Delta X   Delta X     New X
                                 (Linear)    (Quad)   (Total)
    R1        2.64716  -0.00065  -0.00057  -0.00066  -0.00123   2.64593
    R2        2.64705  -0.00062  -0.00058  -0.00058  -0.00117   2.64588
    R3        2.06886  -0.00025  -0.00102   0.00052  -0.00050   2.06836
    R4        2.64700  -0.00063  -0.00058  -0.00061  -0.00120   2.64581
    R5        2.06886  -0.00026  -0.00102   0.00051  -0.00051   2.06835
    R6        2.64721  -0.00066  -0.00057  -0.00068  -0.00125   2.64596
    R7        2.06886  -0.00025  -0.00102   0.00052  -0.00050   2.06836
    R8        2.64700  -0.00061  -0.00058  -0.00057  -0.00115   2.64586
    R9        2.06886  -0.00025  -0.00102   0.00052  -0.00050   2.06836
   R10        2.64716  -0.00067  -0.00057  -0.00071  -0.00128   2.64588
   R11        2.06886  -0.00026  -0.00102   0.00051  -0.00051   2.06835
   R12        2.06886  -0.00025  -0.00102   0.00052  -0.00050   2.06836
    A1        2.09446  -0.00000  -0.00000  -0.00000  -0.00001   2.09445
    A2        2.09433  -0.00000   0.00000  -0.00002  -0.00002   2.09431
    A3        2.09439   0.00001   0.00000   0.00002   0.00003   2.09442
    A4        2.09436   0.00001   0.00001   0.00002   0.00003   2.09439
    A5        2.09429   0.00001  -0.00000   0.00008   0.00008   2.09437
    A6        2.09453  -0.00002  -0.00000  -0.00010  -0.00011   2.09442
    A7        2.09436  -0.00000  -0.00000  -0.00002  -0.00002   2.09434
    A8        2.09446   0.00001   0.00001   0.00003   0.00004   2.09449
    A9        2.09437  -0.00000  -0.00001  -0.00001  -0.00002   2.09435
   A10        2.09446  -0.00000  -0.00000  -0.00000  -0.00001   2.09445
   A11        2.09427   0.00002  -0.00000   0.00010   0.00009   2.09436
   A12        2.09446  -0.00001   0.00001  -0.00009  -0.00008   2.09437
   A13        2.09436   0.00001   0.00001   0.00002   0.00003   2.09439
   A14        2.09442   0.00000   0.00000   0.00001   0.00001   2.09443
   A15        2.09440  -0.00001  -0.00001  -0.00003  -0.00004   2.09436
   A16        2.09436  -0.00001  -0.00000  -0.00002  -0.00002   2.09434
   A17        2.09449  -0.00001   0.00000  -0.00008  -0.00008   2.09441
   A18        2.09433   0.00002   0.00000   0.00010   0.00010   2.09443
    D1        0.00004  -0.00000  -0.00001  -0.00001  -0.00002   0.00002
    D2        3.14158   0.00000   0.00000   0.00000   0.00001   3.14158
    D3       -3.14156  -0.00000  -0.00001   0.00000  -0.00001  -3.14157
    D4       -0.00002   0.00000   0.00000   0.00002   0.00002  -0.00000
    D5        0.00001  -0.00000  -0.00001   0.00001   0.00000   0.00001
    D6        3.14159   0.00000   0.00000  -0.00001  -0.00000   3.14159
    D7       -3.14158  -0.00000  -0.00000  -0.00001  -0.00001  -3.14159
    D8        0.00001  -0.00000   0.00001  -0.00003  -0.00002  -0.00001
    D9       -0.00006   0.00000   0.00002   0.00001   0.00003  -0.00003
   D10        3.14157   0.00000   0.00001  -0.00000   0.00001   3.14158
   D11        3.14158   0.00000   0.00000  -0.00000   0.00000   3.14159
   D12        0.00003  -0.00000  -0.00000  -0.00002  -0.00002   0.00001
   D13        0.00004  -0.00000  -0.00001  -0.00001  -0.00002   0.00002
   D14       -3.14158  -0.00000  -0.00001   0.00000  -0.00000  -3.14158
   D15       -3.14159  -0.00000  -0.00000   0.00001   0.00000  -3.14159
   D16       -0.00002   0.00000  -0.00000   0.00002   0.00002  -0.00000
   D17        0.00001  -0.00000  -0.00001   0.00001   0.00000   0.00001
   D18        3.14158   0.00000   0.00001  -0.00001   0.00000   3.14158
   D19       -3.14156  -0.00000  -0.00001  -0.00001  -0.00001  -3.14158
   D20        0.00001  -0.00000   0.00001  -0.00002  -0.00002  -0.00001
   D21       -0.00003   0.00000   0.00001  -0.00001   0.00001  -0.00003
   D22        3.14157   0.00000   0.00000   0.00001   0.00001   3.14159
   D23        3.14158   0.00000  -0.00000   0.00001   0.00001   3.14159
   D24        0.00000  -0.00000  -0.00001   0.00003   0.00002   0.00002
         Item               Value     Threshold  Converged?
 Maximum Force            0.000670     0.000450     NO 
 RMS     Force            0.000229     0.000300     YES
 Maximum Displacement     0.001683     0.001800     YES
 RMS     Displacement     0.000701     0.001200     YES
 Predicted change in Energy=-2.874896D-06
 GradGradGradGradGradGradGradGradGradGradGradGradGradGradGradGradGradGrad

                          Input orientation:                          
 ---------------------------------------------------------------------
 Center     Atomic      Atomic             Coordinates (Angstroms)
 Number     Number       Type             X           Y           Z
 ---------------------------------------------------------------------
      1          6           0       -0.428307   -0.314679    0.000059
      2          6           0        0.971861   -0.314789    0.000496
      3          6           0        1.672002    0.897680   -0.000040
      4          6           0        0.971935    2.110286   -0.001049
      5          6           0       -0.428193    2.110395   -0.001501
      6          6           0       -1.128354    0.897891   -0.000932
      7          1           0       -0.975565   -1.262572    0.000498
      8          1           0        1.519027   -1.262732    0.001278
      9          1           0        2.766529    0.897706    0.000317
     10          1           0        1.519253    3.058143   -0.001480
     11          1           0       -0.975418    3.058304   -0.002277
     12          1           0       -2.222881    0.897934   -0.001279
 ---------------------------------------------------------------------
                    Distance matrix (angstroms):
                    1          2          3          4          5
     1  C    0.000000
     2  C    1.400168   0.000000
     3  C    2.425101   1.400100   0.000000
     4  C    2.800202   2.425075   1.400181   0.000000
     5  C    2.425075   2.800299   2.425180   1.400128   0.000000
     6  C    1.400141   2.425180   2.800356   2.425100   1.400140
     7  H    1.094528   2.165817   3.417060   3.894730   3.417093
     8  H    2.165852   1.094526   2.165822   3.417099   3.894825
     9  H    3.417141   2.165867   1.094527   2.165853   3.417143
    10  H    3.894730   3.417063   2.165857   1.094528   2.165819
    11  H    3.417068   3.894825   3.417182   2.165854   1.094526
    12  H    2.165855   3.417174   3.894883   3.417110   2.165864
                    6          7          8          9         10
     6  C    0.000000
     7  H    2.165859   0.000000
     8  H    3.417151   2.494592   0.000000
     9  H    3.894883   4.320888   2.494746   0.000000
    10  H    3.417091   4.989259   4.320877   2.494633   0.000000
    11  H    2.165820   4.320877   4.989351   4.320921   2.494671
    12  H    1.094527   2.494711   4.320921   4.989410   4.320888
                   11         12
    11  H    0.000000
    12  H    2.494667   0.000000
 Stoichiometry    C6H6
 Framework group  C1[X(C6H6)]
 Deg. of freedom    30
 Full point group                 C1      NOp   1
 Largest Abelian subgroup         C1      NOp   1
 Largest concise Abelian subgroup C1      NOp   1
                         Standard orientation:                         
 ---------------------------------------------------------------------
 Center     Atomic      Atomic             Coordinates (Angstroms)
 Number     Number       Type             X           Y           Z
 ---------------------------------------------------------------------
      1          6           0        0.163296   -1.390546    0.000000
      2          6           0       -1.122669   -0.836681    0.000009
      3          6           0       -1.285976    0.553863   -0.000008
      4          6           0       -0.163272    1.390549    0.000001
      5          6           0        1.122655    0.836699    0.000008
      6          6           0        1.285967   -0.553884   -0.000008
      7          1           0        0.290873   -2.477613   -0.000006
      8          1           0       -2.000235   -1.490794    0.000008
      9          1           0       -2.291185    0.986928   -0.000017
     10          1           0       -0.290919    2.477608   -0.000001
     11          1           0        2.000262    1.490757    0.000003
     12          1           0        2.291202   -0.986887   -0.000009
 ---------------------------------------------------------------------
 Rotational constants (GHZ):           5.6538486           5.6533538           2.8268006
 Standard basis: def2TZVP (5D, 7F)
 There are   252 symmetry adapted cartesian basis functions of A   symmetry.
 There are   222 symmetry adapted basis functions of A   symmetry.
   222 basis functions,   354 primitive gaussians,   252 cartesian basis functions
    21 alpha electrons       21 beta electrons
       nuclear repulsion energy       202.5415394139 Hartrees.
 NAtoms=   12 NActive=   12 NUniq=   12 SFac= 1.00D+00 NAtFMM=   60 NAOKFM=F Big=F
 Integral buffers will be    131072 words long.
 Raffenetti 2 integral format.
 Two-electron integral symmetry is turned on.
 Standard density basis: W06 (5D, 7F)
   360 Density fitting functions
 There are   360 symmetry adapted density basis functions of A   symmetry.
 One-electron integrals computed using PRISM.
   1 Symmetry operations used in ECPInt.
 ECPInt:  NShTT=    4095 NPrTT=   12396 LenC2=    4075 LenP2D=   10419.
 LDataN:  DoStor=T MaxTD1= 6 Len=  172
 NBasis=   222 RedAO= T EigKep=  1.09D-05  NBF=   222
 NBsUse=   222 1.00D-06 EigRej= -1.00D+00 NBFU=   222
 NBasis=      222 NBas6D=      252 NTT=       24753   NTT6D=    31878
 NDBShl=      120 NDBF=        360 NDBF6D=      438  NNucDB=        0
 IDenFi=        2 ISolve=        0 FullAP=F BlkAPC=T NucTyp=        0
 TolInv= 1.00D-06 TolIt=  1.00D-10 IR12=0.
 FoFCou: FMM=F IPFlag=           0 FMFlag=           0 FMFlg1=           0
         NFxFlg=           0 DoJE=F BraDBF=T KetDBF=T FulRan=T
         wScrn=  0.000000 ICntrl=       600 IOpCl=  3 I1Cent=           6 NGrid=           0
         NMat0=    1 NMatS0=    438 NMatT0=    0 NMatD0=    1 NMtDS0=    0 NMtDT0=    0
 Petite list used in FoFCou.
 DBF EigKep=  1.15D-05 EigRej= -1.00D+00
 NDBF=    360  NBFD=   360
 NRank=   360 NBFDU=   360
 S*AI*S=  6.72590637285    
 Initial guess from the checkpoint file:  "/scratch/cnt0021/sis6494/enicolas/gaussian/11374471/Gau-57666.chk"
 B after Tr=    -0.000000   -0.000000   -0.000000
         Rot=    0.992258   -0.000000   -0.000000   -0.124197 Ang= -14.27 deg.
 Recovered     1 saved fitting vectors from chk file.
 Requested convergence on RMS density matrix=1.00D-08 within 128 cycles.
 Requested convergence on MAX density matrix=1.00D-06.
 Requested convergence on             energy=1.00D-06.
 No special actions if energy rises.
 FoFCou: FMM=F IPFlag=           0 FMFlag=      100000 FMFlg1=           0
         NFxFlg=           0 DoJE=T BraDBF=T KetDBF=F FulRan=T
         wScrn=  0.000000 ICntrl=       500 IOpCl=  0 I1Cent=           5 NGrid=           0
         NMat0=    1 NMatS0=      1 NMatT0=    0 NMatD0=    1 NMtDS0=    0 NMtDT0=    0
 Symmetry not used in FoFCou.
 SCF Done:  E(RMN15L) =  -232.122412449     A.U. after    6 cycles
            NFock=  6  Conv=0.51D-08     -V/T= 2.0063
   1 Symmetry operations used in ECPInt.
 ECPInt:  NShTT=    4095 NPrTT=   12396 LenC2=    4075 LenP2D=   10419.
 LDataN:  DoStor=T MaxTD1= 7 Len=  274
 Calling FoFJK, ICntrl=      2527 FMM=F ISym2X=0 I1Cent= 4 IOpClX= 0 NMat=1 NMatS=1 NMatT=0.
 ***** Axes restored to original set *****
 -------------------------------------------------------------------
 Center     Atomic                   Forces (Hartrees/Bohr)
 Number     Number              X              Y              Z
 -------------------------------------------------------------------
      1        6          -0.000016323   -0.000052310    0.000000081
      2        6           0.000005970   -0.000078067    0.000002178
      3        6           0.000034742    0.000032649   -0.000001746
      4        6           0.000049741    0.000033090    0.000000320
      5        6          -0.000039020    0.000059203    0.000001789
      6        6          -0.000034837    0.000005421   -0.000001843
      7        1           0.000027555    0.000058109   -0.000000328
      8        1          -0.000031418    0.000052866   -0.000000232
      9        1          -0.000064553   -0.000004485   -0.000000187
     10        1          -0.000032066   -0.000055576    0.000000047
     11        1           0.000035801   -0.000050343   -0.000000457
     12        1           0.000064407   -0.000000556    0.000000377
 -------------------------------------------------------------------
 Cartesian Forces:  Max     0.000078067 RMS     0.000035531

 GradGradGradGradGradGradGradGradGradGradGradGradGradGradGradGradGradGrad
 Berny optimization.
 Using GEDIIS/GDIIS optimizer.
 FormGI is forming the generalized inverse of G from B-inverse, IUseBI=4.
 Internal  Forces:  Max     0.000064553 RMS     0.000022413
 Search for a local minimum.
 Step number   3 out of a maximum of   64
 All quantities printed in internal units (Hartrees-Bohrs-Radians)
 Mixed Optimization -- En-DIIS/RFO-DIIS
 Swapping is turned off.
 Update second derivatives using D2CorX and points    1    2    3
 DE= -3.25D-06 DEPred=-2.87D-06 R= 1.13D+00
 TightC=F SS=  1.41D+00  RLast= 3.23D-03 DXNew= 5.0454D-01 9.6769D-03
 Trust test= 1.13D+00 RLast= 3.23D-03 DXMaxT set to 3.00D-01
 ITU=  1  1  0
     Eigenvalues ---    0.02140   0.02140   0.02140   0.02140   0.02140
     Eigenvalues ---    0.02140   0.02141   0.02141   0.02141   0.15986
     Eigenvalues ---    0.16000   0.16000   0.16000   0.16000   0.16003
     Eigenvalues ---    0.21994   0.22000   0.22004   0.34822   0.35224
     Eigenvalues ---    0.35225   0.35225   0.35226   0.35226   0.41990
     Eigenvalues ---    0.41993   0.46077   0.46273   0.46275   0.51616
 En-DIIS/RFO-DIIS/Sim-DIIS IScMMF=       -3 using points:     3    2
 RFO step:  Lambda=-7.29017766D-08.
 DidBck=F Rises=F RFO-DIIS coefs:    1.06599   -0.06599
 Iteration  1 RMS(Cart)=  0.00007619 RMS(Int)=  0.00000000
 Iteration  2 RMS(Cart)=  0.00000000 RMS(Int)=  0.00000000
 Variable       Old X    -DE/DX   Delta X   Delta X   Delta X     New X
                                 (Linear)    (Quad)   (Total)
    R1        2.64593  -0.00003  -0.00008   0.00002  -0.00006   2.64588
    R2        2.64588  -0.00001  -0.00008   0.00007  -0.00001   2.64588
    R3        2.06836  -0.00006  -0.00003  -0.00015  -0.00018   2.06817
    R4        2.64581   0.00001  -0.00008   0.00011   0.00003   2.64584
    R5        2.06835  -0.00006  -0.00003  -0.00014  -0.00018   2.06818
    R6        2.64596  -0.00002  -0.00008   0.00003  -0.00005   2.64591
    R7        2.06836  -0.00006  -0.00003  -0.00015  -0.00019   2.06817
    R8        2.64586  -0.00001  -0.00008   0.00006  -0.00002   2.64584
    R9        2.06836  -0.00006  -0.00003  -0.00015  -0.00018   2.06817
   R10        2.64588  -0.00001  -0.00008   0.00007  -0.00001   2.64587
   R11        2.06835  -0.00006  -0.00003  -0.00014  -0.00018   2.06818
   R12        2.06836  -0.00006  -0.00003  -0.00015  -0.00018   2.06817
    A1        2.09445  -0.00000  -0.00000  -0.00002  -0.00002   2.09444
    A2        2.09431   0.00000  -0.00000   0.00002   0.00002   2.09433
    A3        2.09442  -0.00000   0.00000  -0.00001  -0.00000   2.09442
    A4        2.09439  -0.00001   0.00000  -0.00006  -0.00006   2.09433
    A5        2.09437   0.00001   0.00001   0.00004   0.00004   2.09442
    A6        2.09442   0.00000  -0.00001   0.00002   0.00001   2.09443
    A7        2.09434   0.00002  -0.00000   0.00008   0.00008   2.09441
    A8        2.09449  -0.00001   0.00000  -0.00005  -0.00005   2.09445
    A9        2.09435  -0.00001  -0.00000  -0.00003  -0.00003   2.09432
   A10        2.09445  -0.00000  -0.00000  -0.00002  -0.00002   2.09444
   A11        2.09436   0.00001   0.00001   0.00002   0.00003   2.09439
   A12        2.09437  -0.00000  -0.00001  -0.00001  -0.00001   2.09436
   A13        2.09439  -0.00001   0.00000  -0.00006  -0.00006   2.09433
   A14        2.09443   0.00000   0.00000   0.00001   0.00001   2.09444
   A15        2.09436   0.00001  -0.00000   0.00005   0.00005   2.09441
   A16        2.09434   0.00002  -0.00000   0.00008   0.00008   2.09441
   A17        2.09441  -0.00001  -0.00001  -0.00006  -0.00006   2.09435
   A18        2.09443  -0.00000   0.00001  -0.00002  -0.00001   2.09442
    D1        0.00002  -0.00000  -0.00000  -0.00002  -0.00002  -0.00000
    D2        3.14158   0.00000   0.00000   0.00001   0.00001  -3.14159
    D3       -3.14157  -0.00000  -0.00000  -0.00002  -0.00003   3.14159
    D4       -0.00000   0.00000   0.00000   0.00000   0.00000   0.00000
    D5        0.00001  -0.00000   0.00000  -0.00001  -0.00001  -0.00000
    D6        3.14159   0.00000  -0.00000   0.00001   0.00001  -3.14159
    D7       -3.14159  -0.00000  -0.00000  -0.00001  -0.00001   3.14159
    D8       -0.00001   0.00000  -0.00000   0.00001   0.00001   0.00000
    D9       -0.00003   0.00000   0.00000   0.00004   0.00004   0.00001
   D10        3.14158   0.00000   0.00000   0.00002   0.00002  -3.14159
   D11        3.14159   0.00000   0.00000   0.00001   0.00001  -3.14159
   D12        0.00001  -0.00000  -0.00000  -0.00001  -0.00001  -0.00000
   D13        0.00002  -0.00000  -0.00000  -0.00002  -0.00002  -0.00001
   D14       -3.14158  -0.00000  -0.00000  -0.00001  -0.00001   3.14159
   D15       -3.14159  -0.00000   0.00000  -0.00000  -0.00000   3.14159
   D16       -0.00000   0.00000   0.00000   0.00000   0.00000   0.00000
   D17        0.00001  -0.00000   0.00000  -0.00001  -0.00001  -0.00000
   D18        3.14158   0.00000   0.00000   0.00002   0.00002  -3.14159
   D19       -3.14158  -0.00000  -0.00000  -0.00002  -0.00002   3.14159
   D20       -0.00001   0.00000  -0.00000   0.00001   0.00001  -0.00000
   D21       -0.00003   0.00000   0.00000   0.00003   0.00003   0.00001
   D22        3.14159   0.00000   0.00000   0.00001   0.00001  -3.14159
   D23        3.14159   0.00000   0.00000   0.00000   0.00000  -3.14159
   D24        0.00002  -0.00000   0.00000  -0.00002  -0.00002  -0.00000
         Item               Value     Threshold  Converged?
 Maximum Force            0.000065     0.000450     YES
 RMS     Force            0.000022     0.000300     YES
 Maximum Displacement     0.000295     0.001800     YES
 RMS     Displacement     0.000076     0.001200     YES
 Predicted change in Energy=-3.960801D-08
 Optimization completed.
    -- Stationary point found.
                           ----------------------------
                           !   Optimized Parameters   !
                           ! (Angstroms and Degrees)  !
 --------------------------                            --------------------------
 ! Name  Definition              Value          Derivative Info.                !
 --------------------------------------------------------------------------------
 ! R1    R(1,2)                  1.4002         -DE/DX =    0.0                 !
 ! R2    R(1,6)                  1.4001         -DE/DX =    0.0                 !
 ! R3    R(1,7)                  1.0945         -DE/DX =   -0.0001              !
 ! R4    R(2,3)                  1.4001         -DE/DX =    0.0                 !
 ! R5    R(2,8)                  1.0945         -DE/DX =   -0.0001              !
 ! R6    R(3,4)                  1.4002         -DE/DX =    0.0                 !
 ! R7    R(3,9)                  1.0945         -DE/DX =   -0.0001              !
 ! R8    R(4,5)                  1.4001         -DE/DX =    0.0                 !
 ! R9    R(4,10)                 1.0945         -DE/DX =   -0.0001              !
 ! R10   R(5,6)                  1.4001         -DE/DX =    0.0                 !
 ! R11   R(5,11)                 1.0945         -DE/DX =   -0.0001              !
 ! R12   R(6,12)                 1.0945         -DE/DX =   -0.0001              !
 ! A1    A(2,1,6)              120.0034         -DE/DX =    0.0                 !
 ! A2    A(2,1,7)              119.9952         -DE/DX =    0.0                 !
 ! A3    A(6,1,7)              120.0014         -DE/DX =    0.0                 !
 ! A4    A(1,2,3)              119.9998         -DE/DX =    0.0                 !
 ! A5    A(1,2,8)              119.9986         -DE/DX =    0.0                 !
 ! A6    A(3,2,8)              120.0016         -DE/DX =    0.0                 !
 ! A7    A(2,3,4)              119.9968         -DE/DX =    0.0                 !
 ! A8    A(2,3,9)              120.0056         -DE/DX =    0.0                 !
 ! A9    A(4,3,9)              119.9976         -DE/DX =    0.0                 !
 ! A10   A(3,4,5)              120.0034         -DE/DX =    0.0                 !
 ! A11   A(3,4,10)             119.9978         -DE/DX =    0.0                 !
 ! A12   A(5,4,10)             119.9988         -DE/DX =    0.0                 !
 ! A13   A(4,5,6)              119.9998         -DE/DX =    0.0                 !
 ! A14   A(4,5,11)             120.0022         -DE/DX =    0.0                 !
 ! A15   A(6,5,11)             119.998          -DE/DX =    0.0                 !
 ! A16   A(1,6,5)              119.9968         -DE/DX =    0.0                 !
 ! A17   A(1,6,12)             120.0011         -DE/DX =    0.0                 !
 ! A18   A(5,6,12)             120.0021         -DE/DX =    0.0                 !
 ! D1    D(6,1,2,3)              0.0009         -DE/DX =    0.0                 !
 ! D2    D(6,1,2,8)           -180.0005         -DE/DX =    0.0                 !
 ! D3    D(7,1,2,3)            180.0012         -DE/DX =    0.0                 !
 ! D4    D(7,1,2,8)             -0.0001         -DE/DX =    0.0                 !
 ! D5    D(2,1,6,5)              0.0007         -DE/DX =    0.0                 !
 ! D6    D(2,1,6,12)          -180.0004         -DE/DX =    0.0                 !
 ! D7    D(7,1,6,5)            180.0004         -DE/DX =    0.0                 !
 ! D8    D(7,1,6,12)            -0.0007         -DE/DX =    0.0                 !
 ! D9    D(1,2,3,4)             -0.0017         -DE/DX =    0.0                 !
 ! D10   D(1,2,3,9)           -180.001          -DE/DX =    0.0                 !
 ! D11   D(8,2,3,4)           -180.0004         -DE/DX =    0.0                 !
 ! D12   D(8,2,3,9)              0.0003         -DE/DX =    0.0                 !
 ! D13   D(2,3,4,5)              0.0009         -DE/DX =    0.0                 !
 ! D14   D(2,3,4,10)           180.0007         -DE/DX =    0.0                 !
 ! D15   D(9,3,4,5)            180.0002         -DE/DX =    0.0                 !
 ! D16   D(9,3,4,10)             0.0            -DE/DX =    0.0                 !
 ! D17   D(3,4,5,6)              0.0006         -DE/DX =    0.0                 !
 ! D18   D(3,4,5,11)          -180.0008         -DE/DX =    0.0                 !
 ! D19   D(10,4,5,6)           180.0009         -DE/DX =    0.0                 !
 ! D20   D(10,4,5,11)           -0.0005         -DE/DX =    0.0                 !
 ! D21   D(4,5,6,1)             -0.0015         -DE/DX =    0.0                 !
 ! D22   D(4,5,6,12)          -180.0004         -DE/DX =    0.0                 !
 ! D23   D(11,5,6,1)          -180.0001         -DE/DX =    0.0                 !
 ! D24   D(11,5,6,12)            0.001          -DE/DX =    0.0                 !
 --------------------------------------------------------------------------------
 GradGradGradGradGradGradGradGradGradGradGradGradGradGradGradGradGradGrad

                          Input orientation:                          
 ---------------------------------------------------------------------
 Center     Atomic      Atomic             Coordinates (Angstroms)
 Number     Number       Type             X           Y           Z
 ---------------------------------------------------------------------
      1          6           0       -0.428307   -0.314679    0.000059
      2          6           0        0.971861   -0.314789    0.000496
      3          6           0        1.672002    0.897680   -0.000040
      4          6           0        0.971935    2.110286   -0.001049
      5          6           0       -0.428193    2.110395   -0.001501
      6          6           0       -1.128354    0.897891   -0.000932
      7          1           0       -0.975565   -1.262572    0.000498
      8          1           0        1.519027   -1.262732    0.001278
      9          1           0        2.766529    0.897706    0.000317
     10          1           0        1.519253    3.058143   -0.001480
     11          1           0       -0.975418    3.058304   -0.002277
     12          1           0       -2.222881    0.897934   -0.001279
 ---------------------------------------------------------------------
                    Distance matrix (angstroms):
                    1          2          3          4          5
     1  C    0.000000
     2  C    1.400168   0.000000
     3  C    2.425101   1.400100   0.000000
     4  C    2.800202   2.425075   1.400181   0.000000
     5  C    2.425075   2.800299   2.425180   1.400128   0.000000
     6  C    1.400141   2.425180   2.800356   2.425100   1.400140
     7  H    1.094528   2.165817   3.417060   3.894730   3.417093
     8  H    2.165852   1.094526   2.165822   3.417099   3.894825
     9  H    3.417141   2.165867   1.094527   2.165853   3.417143
    10  H    3.894730   3.417063   2.165857   1.094528   2.165819
    11  H    3.417068   3.894825   3.417182   2.165854   1.094526
    12  H    2.165855   3.417174   3.894883   3.417110   2.165864
                    6          7          8          9         10
     6  C    0.000000
     7  H    2.165859   0.000000
     8  H    3.417151   2.494592   0.000000
     9  H    3.894883   4.320888   2.494746   0.000000
    10  H    3.417091   4.989259   4.320877   2.494633   0.000000
    11  H    2.165820   4.320877   4.989351   4.320921   2.494671
    12  H    1.094527   2.494711   4.320921   4.989410   4.320888
                   11         12
    11  H    0.000000
    12  H    2.494667   0.000000
 Stoichiometry    C6H6
 Framework group  C1[X(C6H6)]
 Deg. of freedom    30
 Full point group                 C1      NOp   1
 Largest Abelian subgroup         C1      NOp   1
 Largest concise Abelian subgroup C1      NOp   1
                         Standard orientation:                         
 ---------------------------------------------------------------------
 Center     Atomic      Atomic             Coordinates (Angstroms)
 Number     Number       Type             X           Y           Z
 ---------------------------------------------------------------------
      1          6           0        0.163296   -1.390546    0.000000
      2          6           0       -1.122669   -0.836681    0.000009
      3          6           0       -1.285976    0.553863   -0.000008
      4          6           0       -0.163272    1.390549    0.000001
      5          6           0        1.122655    0.836699    0.000008
      6          6           0        1.285967   -0.553884   -0.000008
      7          1           0        0.290873   -2.477613   -0.000006
      8          1           0       -2.000235   -1.490794    0.000008
      9          1           0       -2.291185    0.986928   -0.000017
     10          1           0       -0.290919    2.477608   -0.000001
     11          1           0        2.000262    1.490757    0.000003
     12          1           0        2.291202   -0.986887   -0.000009
 ---------------------------------------------------------------------
 Rotational constants (GHZ):           5.6538486           5.6533538           2.8268006

 **********************************************************************

            Population analysis using the SCF Density.

 **********************************************************************

 Orbital symmetries:
       Occupied  (A) (A) (A) (A) (A) (A) (A) (A) (A) (A) (A) (A)
                 (A) (A) (A) (A) (A) (A) (A) (A) (A)
       Virtual   (A) (A) (A) (A) (A) (A) (A) (A) (A) (A) (A) (A)
                 (A) (A) (A) (A) (A) (A) (A) (A) (A) (A) (A) (A)
                 (A) (A) (A) (A) (A) (A) (A) (A) (A) (A) (A) (A)
                 (A) (A) (A) (A) (A) (A) (A) (A) (A) (A) (A) (A)
                 (A) (A) (A) (A) (A) (A) (A) (A) (A) (A) (A) (A)
                 (A) (A) (A) (A) (A) (A) (A) (A) (A) (A) (A) (A)
                 (A) (A) (A) (A) (A) (A) (A) (A) (A) (A) (A) (A)
                 (A) (A) (A) (A) (A) (A) (A) (A) (A) (A) (A) (A)
                 (A) (A) (A) (A) (A) (A) (A) (A) (A) (A) (A) (A)
                 (A) (A) (A) (A) (A) (A) (A) (A) (A) (A) (A) (A)
                 (A) (A) (A) (A) (A) (A) (A) (A) (A) (A) (A) (A)
                 (A) (A) (A) (A) (A) (A) (A) (A) (A) (A) (A) (A)
                 (A) (A) (A) (A) (A) (A) (A) (A) (A) (A) (A) (A)
                 (A) (A) (A) (A) (A) (A) (A) (A) (A) (A) (A) (A)
                 (A) (A) (A) (A) (A) (A) (A) (A) (A) (A) (A) (A)
                 (A) (A) (A) (A) (A) (A) (A) (A) (A) (A) (A) (A)
                 (A) (A) (A) (A) (A) (A) (A) (A) (A)
 The electronic state is 1-A.
 Alpha  occ. eigenvalues --  -10.14050 -10.14031 -10.14031 -10.13987 -10.13987
 Alpha  occ. eigenvalues --  -10.13966  -0.85291  -0.74165  -0.74163  -0.58983
 Alpha  occ. eigenvalues --   -0.58983  -0.50197  -0.44094  -0.42281  -0.39681
 Alpha  occ. eigenvalues --   -0.39679  -0.34903  -0.31703  -0.31702  -0.23712
 Alpha  occ. eigenvalues --   -0.23710
 Alpha virt. eigenvalues --   -0.02547  -0.02547   0.03924   0.07831   0.07831
 Alpha virt. eigenvalues --    0.10540   0.10540   0.12349   0.13529   0.15266
 Alpha virt. eigenvalues --    0.21628   0.21772   0.21773   0.22416   0.24093
 Alpha virt. eigenvalues --    0.24094   0.26000   0.26000   0.26507   0.26507
 Alpha virt. eigenvalues --    0.32189   0.34268   0.34268   0.36522   0.36523
 Alpha virt. eigenvalues --    0.36720   0.41288   0.41288   0.42286   0.43758
 Alpha virt. eigenvalues --    0.43759   0.44941   0.46226   0.47243   0.49432
 Alpha virt. eigenvalues --    0.49434   0.50985   0.52206   0.52207   0.65197
 Alpha virt. eigenvalues --    0.66417   0.66418   0.70379   0.70724   0.75709
 Alpha virt. eigenvalues --    0.75713   0.78178   0.78178   0.81039   0.85790
 Alpha virt. eigenvalues --    0.85790   0.87838   0.92276   0.92700   1.05642
 Alpha virt. eigenvalues --    1.05643   1.06269   1.06270   1.10143   1.10145
 Alpha virt. eigenvalues --    1.22952   1.24627   1.24628   1.26769   1.26771
 Alpha virt. eigenvalues --    1.28753   1.28754   1.29467   1.29471   1.36854
 Alpha virt. eigenvalues --    1.45522   1.46534   1.51768   1.53747   1.53748
 Alpha virt. eigenvalues --    1.58366   1.58366   1.61164   1.61166   1.69539
 Alpha virt. eigenvalues --    1.70951   1.77319   1.78136   1.79823   1.79823
 Alpha virt. eigenvalues --    1.80746   1.80746   1.81130   1.81137   1.87242
 Alpha virt. eigenvalues --    1.98629   2.01820   2.01822   2.15445   2.15447
 Alpha virt. eigenvalues --    2.18530   2.21354   2.22252   2.22253   2.26512
 Alpha virt. eigenvalues --    2.26520   2.34793   2.36669   2.36670   2.40205
 Alpha virt. eigenvalues --    2.63242   2.65376   2.65377   2.68434   2.68534
 Alpha virt. eigenvalues --    2.70213   2.71515   2.71518   2.80685   2.80688
 Alpha virt. eigenvalues --    2.80823   2.80825   2.82228   2.82231   2.86831
 Alpha virt. eigenvalues --    2.89183   2.89183   2.94621   2.97205   2.98670
 Alpha virt. eigenvalues --    2.98671   2.99607   3.01031   3.01032   3.05039
 Alpha virt. eigenvalues --    3.05043   3.07317   3.17402   3.27595   3.27596
 Alpha virt. eigenvalues --    3.29452   3.29457   3.30305   3.30310   3.31271
 Alpha virt. eigenvalues --    3.31272   3.36102   3.43459   3.43781   3.43783
 Alpha virt. eigenvalues --    3.45129   3.45133   3.49069   3.53172   3.54980
 Alpha virt. eigenvalues --    3.54985   3.56543   3.63371   3.64338   3.64345
 Alpha virt. eigenvalues --    3.68590   3.71947   3.71947   3.83882   3.85508
 Alpha virt. eigenvalues --    3.85512   3.97880   3.97892   4.00572   4.01707
 Alpha virt. eigenvalues --    4.14025   4.23542   4.23545   4.29753   4.30654
 Alpha virt. eigenvalues --    4.30658   4.35622   4.44402   4.44408   4.46013
 Alpha virt. eigenvalues --    4.47234   4.47239   4.50752   4.50766   4.54857
 Alpha virt. eigenvalues --    4.54864   4.89231   4.89236   4.90514   4.94937
 Alpha virt. eigenvalues --    5.07083   5.07087   5.16151   5.16154   5.48477
 Alpha virt. eigenvalues --    5.48478   5.56450   5.57108   5.69485   5.98725
 Alpha virt. eigenvalues --   22.12654  22.76329  22.76336  22.85138  22.85144
 Alpha virt. eigenvalues --   23.25872
          Condensed to atoms (all electrons):
               1          2          3          4          5          6
     1  C    4.663288   0.558420   0.012436  -0.048089   0.012416   0.558556
     2  C    0.558420   4.662961   0.558499   0.012416  -0.048093   0.012426
     3  C    0.012436   0.558499   4.663284   0.558494   0.012426  -0.048077
     4  C   -0.048089   0.012416   0.558494   4.663288   0.558482   0.012436
     5  C    0.012416  -0.048093   0.012426   0.558482   4.662962   0.558437
     6  C    0.558556   0.012426  -0.048077   0.012436   0.558437   4.663285
     7  H    0.412810  -0.057904   0.006277   0.001448   0.006280  -0.057920
     8  H   -0.057922   0.412838  -0.057924   0.006276   0.001449   0.006275
     9  H    0.006278  -0.057900   0.412812  -0.057905   0.006276   0.001448
    10  H    0.001448   0.006279  -0.057921   0.412810  -0.057902   0.006278
    11  H    0.006276   0.001449   0.006276  -0.057921   0.412838  -0.057925
    12  H   -0.057903   0.006277   0.001448   0.006277  -0.057901   0.412812
               7          8          9         10         11         12
     1  C    0.412810  -0.057922   0.006278   0.001448   0.006276  -0.057903
     2  C   -0.057904   0.412838  -0.057900   0.006279   0.001449   0.006277
     3  C    0.006277  -0.057924   0.412812  -0.057921   0.006276   0.001448
     4  C    0.001448   0.006276  -0.057905   0.412810  -0.057921   0.006277
     5  C    0.006280   0.001449   0.006276  -0.057902   0.412838  -0.057901
     6  C   -0.057920   0.006275   0.001448   0.006278  -0.057925   0.412812
     7  H    0.639743  -0.008819  -0.000584   0.000177  -0.000584  -0.008821
     8  H   -0.008819   0.639727  -0.008819  -0.000584   0.000177  -0.000583
     9  H   -0.000584  -0.008819   0.639716  -0.008820  -0.000583   0.000177
    10  H    0.000177  -0.000584  -0.008820   0.639743  -0.008820  -0.000584
    11  H   -0.000584   0.000177  -0.000583  -0.008820   0.639727  -0.008818
    12  H   -0.008821  -0.000583   0.000177  -0.000584  -0.008818   0.639716
 Mulliken charges:
               1
     1  C   -0.068011
     2  C   -0.067667
     3  C   -0.068030
     4  C   -0.068011
     5  C   -0.067667
     6  C   -0.068031
     7  H    0.067896
     8  H    0.067909
     9  H    0.067904
    10  H    0.067896
    11  H    0.067909
    12  H    0.067904
 Sum of Mulliken charges =  -0.00000
 Mulliken charges with hydrogens summed into heavy atoms:
               1
     1  C   -0.000115
     2  C    0.000242
     3  C   -0.000126
     4  C   -0.000115
     5  C    0.000241
     6  C   -0.000127
 Electronic spatial extent (au):  <R**2>=            464.2579
[...]
   D21       -0.00003   0.00000   0.00000   0.00003   0.00003   0.00000
   D22        3.14159   0.00000   0.00000   0.00001   0.00001   3.14159
   D23        3.14159   0.00000   0.00000   0.00000   0.00000   3.14159
   D24        0.00002  -0.00000   0.00000  -0.00002  -0.00002   0.00000
         Item               Value     Threshold  Converged?
 Maximum Force            0.000064     0.000450     YES
 RMS     Force            0.000022     0.000300     YES
 Maximum Displacement     0.000291     0.001800     YES
 RMS     Displacement     0.000077     0.001200     YES
 Predicted change in Energy=-3.972021D-08
 Optimization completed.
    -- Stationary point found.
                           ----------------------------
                           !   Optimized Parameters   !
                           ! (Angstroms and Degrees)  !
 --------------------------                            --------------------------
 ! Name  Definition              Value          Derivative Info.                !
 --------------------------------------------------------------------------------
 ! R1    R(1,2)                  1.4002         -DE/DX =    0.0                 !
 ! R2    R(1,6)                  1.4001         -DE/DX =    0.0                 !
 ! R3    R(1,7)                  1.0945         -DE/DX =   -0.0001              !
 ! R4    R(2,3)                  1.4001         -DE/DX =    0.0                 !
 ! R5    R(2,8)                  1.0945         -DE/DX =   -0.0001              !
 ! R6    R(3,4)                  1.4002         -DE/DX =    0.0                 !
 ! R7    R(3,9)                  1.0945         -DE/DX =   -0.0001              !
 ! R8    R(4,5)                  1.4001         -DE/DX =    0.0                 !
 ! R9    R(4,10)                 1.0945         -DE/DX =   -0.0001              !
 ! R10   R(5,6)                  1.4001         -DE/DX =    0.0                 !
 ! R11   R(5,11)                 1.0945         -DE/DX =   -0.0001              !
 ! R12   R(6,12)                 1.0945         -DE/DX =   -0.0001              !
 ! A1    A(2,1,6)              120.0034         -DE/DX =    0.0                 !
 ! A2    A(2,1,7)              119.9952         -DE/DX =    0.0                 !
 ! A3    A(6,1,7)              120.0014         -DE/DX =    0.0                 !
 ! A4    A(1,2,3)              119.9998         -DE/DX =    0.0                 !
 ! A5    A(1,2,8)              119.9986         -DE/DX =    0.0                 !
 ! A6    A(3,2,8)              120.0016         -DE/DX =    0.0                 !
 ! A7    A(2,3,4)              119.9968         -DE/DX =    0.0                 !
 ! A8    A(2,3,9)              120.0056         -DE/DX =    0.0                 !
 ! A9    A(4,3,9)              119.9976         -DE/DX =    0.0                 !
 ! A10   A(3,4,5)              120.0034         -DE/DX =    0.0                 !
 ! A11   A(3,4,10)             119.9978         -DE/DX =    0.0                 !
 ! A12   A(5,4,10)             119.9988         -DE/DX =    0.0                 !
 ! A13   A(4,5,6)              119.9998         -DE/DX =    0.0                 !
 ! A14   A(4,5,11)             120.0022         -DE/DX =    0.0                 !
 ! A15   A(6,5,11)             119.998          -DE/DX =    0.0                 !
 ! A16   A(1,6,5)              119.9968         -DE/DX =    0.0                 !
 ! A17   A(1,6,12)             120.0011         -DE/DX =    0.0                 !
 ! A18   A(5,6,12)             120.0021         -DE/DX =    0.0                 !
 ! D1    D(6,1,2,3)              0.0009         -DE/DX =    0.0                 !
 ! D2    D(6,1,2,8)           -180.0005         -DE/DX =    0.0                 !
 ! D3    D(7,1,2,3)           -179.9988         -DE/DX =    0.0                 !
 ! D4    D(7,1,2,8)             -0.0001         -DE/DX =    0.0                 !
 ! D5    D(2,1,6,5)              0.0007         -DE/DX =    0.0                 !
 ! D6    D(2,1,6,12)           179.9996         -DE/DX =    0.0                 !
 ! D7    D(7,1,6,5)           -179.9996         -DE/DX =    0.0                 !
 ! D8    D(7,1,6,12)            -0.0007         -DE/DX =    0.0                 !
 ! D9    D(1,2,3,4)             -0.0017         -DE/DX =    0.0                 !
 ! D10   D(1,2,3,9)            179.999          -DE/DX =    0.0                 !
 ! D11   D(8,2,3,4)            179.9996         -DE/DX =    0.0                 !
 ! D12   D(8,2,3,9)              0.0003         -DE/DX =    0.0                 !
 ! D13   D(2,3,4,5)              0.0009         -DE/DX =    0.0                 !
 ! D14   D(2,3,4,10)          -179.9993         -DE/DX =    0.0                 !
 ! D15   D(9,3,4,5)            180.0002         -DE/DX =    0.0                 !
 ! D16   D(9,3,4,10)             0.0            -DE/DX =    0.0                 !
 ! D17   D(3,4,5,6)              0.0006         -DE/DX =    0.0                 !
 ! D18   D(3,4,5,11)           179.9992         -DE/DX =    0.0                 !
 ! D19   D(10,4,5,6)          -179.9991         -DE/DX =    0.0                 !
 ! D20   D(10,4,5,11)           -0.0005         -DE/DX =    0.0                 !
 ! D21   D(4,5,6,1)             -0.0015         -DE/DX =    0.0                 !
 ! D22   D(4,5,6,12)           179.9996         -DE/DX =    0.0                 !
 ! D23   D(11,5,6,1)           179.9999         -DE/DX =    0.0                 !
 ! D24   D(11,5,6,12)            0.001          -DE/DX =    0.0                 !
 --------------------------------------------------------------------------------
 GradGradGradGradGradGradGradGradGradGradGradGradGradGradGradGradGradGrad


 ----------------------------------------------------------------------

 Electric dipole moment (input orientation):
 (Debye = 10**-18 statcoulomb cm , SI units = C m)
                  (au)            (Debye)         (10**-30 SI)
   Tot        0.000000D+00      0.000000D+00      0.000000D+00
   x          0.000000D+00      0.000000D+00      0.000000D+00
   y          0.000000D+00      0.000000D+00      0.000000D+00
   z          0.000000D+00      0.000000D+00      0.000000D+00

 Dipole polarizability, Alpha (input orientation).
 (esu units = cm**3 , SI units = C**2 m**2 J**-1)
 Alpha(0;0):
               (au)            (10**-24 esu)      (10**-40 SI)
   iso        0.671878D+02      0.995620D+01      0.110778D+02
   aniso      0.417560D+02      0.618761D+01      0.688464D+01
   xx         0.811111D+02      0.120194D+02      0.133734D+02
   yx         0.178499D-01      0.264509D-02      0.294306D-02
   yy         0.811019D+02      0.120181D+02      0.133719D+02
   zx         0.132723D-01      0.196675D-02      0.218830D-02
   zy        -0.267278D-01     -0.396065D-02     -0.440682D-02
   zz         0.393504D+02      0.583114D+01      0.648801D+01

 ----------------------------------------------------------------------

 Dipole orientation:
     6         -0.65149836         -0.65888588          0.38747481
     6          1.25917115         -0.35998344         -1.41833979
     6          2.47282572          1.97576442         -1.68594082
     6          1.77571461          4.01266727         -0.14770746
     6         -0.13492051          3.71378166          1.65803440
     6         -1.34856650          1.37794907          1.92568596
     1         -1.60015191         -2.48493099          0.59657517
     1          1.80397934         -1.95233264         -2.62071135
     1          3.96646272          2.20961267         -3.09748708
     1          2.72445335          5.83865859         -0.35689253
     1         -0.67980886          5.30605325          2.86047277
     1         -2.84217566          1.14421871          3.33728096

 Electric dipole moment (dipole orientation):
 (Debye = 10**-18 statcoulomb cm , SI units = C m)
                  (au)            (Debye)         (10**-30 SI)
   Tot        0.000000D+00      0.000000D+00      0.000000D+00
   x          0.000000D+00      0.000000D+00      0.000000D+00
   y          0.000000D+00      0.000000D+00      0.000000D+00
   z          0.000000D+00      0.000000D+00      0.000000D+00

 Dipole polarizability, Alpha (dipole orientation).
 (esu units = cm**3 , SI units = C**2 m**2 J**-1)
 Alpha(0;0):
               (au)            (10**-24 esu)      (10**-40 SI)
   iso        0.671878D+02      0.995620D+01      0.110778D+02
   aniso      0.417560D+02      0.618761D+01      0.688464D+01
   xx         0.616605D+02      0.913714D+01      0.101664D+02
   yx         0.791074D+01      0.117225D+01      0.130430D+01
   yy         0.778990D+02      0.115434D+02      0.128438D+02
   zx        -0.192738D+02     -0.285609D+01     -0.317782D+01
   zy         0.781358D+01      0.115785D+01      0.128828D+01
   zz         0.620039D+02      0.918803D+01      0.102231D+02

 ----------------------------------------------------------------------
 Unable to Open any file for archive entry.
 1\1\GINC-N3860\Freq\RMN15L\def2TZVP/W06\C6H6\ENICOLAS\25-Nov-2020\0\\#
 N Geom=AllCheck Guess=TCheck SCRF=Check GenChk RMN15L/def2TZVP/W06 Fre
 q\\Title\\0,1\C,-0.4283066593,-0.3146792908,0.0000593488\C,0.971861271
 4,-0.3147892974,0.0004957035\C,1.6720023048,0.8976800522,-0.0000404172
 \C,0.9719349586,2.1102855472,-0.0010489958\C,-0.428192548,2.1103954148
 ,-0.0015014136\C,-1.1283536314,0.8978912347,-0.000931669\H,-0.97556521
 44,-1.262571653,0.000498448\H,1.5190269451,-1.2627324011,0.001277905\H
 ,2.7665294635,0.8977057776,0.0003170243\H,1.5192534417,3.0581434034,-0
 .0014797125\H,-0.9754176276,3.0583043621,-0.0022772735\H,-2.2228807043
 ,0.8979338504,-0.001278948\\Version=ES64L-G16RevC.01\State=1-A\HF=-232
 .1224124\RMSD=6.049e-09\RMSF=3.554e-05\ZeroPoint=0.0999709\Thermal=0.1
 044052\ETot=-232.0180073\HTot=-232.0170631\GTot=-232.0499368\Dipole=-0
 .000006,0.0000024,0.0000059\DipoleDeriv=-0.0128691,0.0871068,-0.000020
 7,0.0873035,0.0872662,-0.0001107,-0.0000356,-0.0001061,-0.1264229,-0.0
 131402,-0.0880522,0.0000906,-0.0878975,0.088425,-0.0001628,0.0001075,-
 0.0001776,-0.126595,0.1391276,0.0003064,0.0000903,0.0000737,-0.0631229
 ,-0.0000405,0.0000713,-0.0000333,-0.1263114,-0.0128685,0.0871045,-0.00
 00199,0.0873063,0.087265,-0.000109,-0.0000077,-0.0001165,-0.1264229,-0
 .0131376,-0.0880551,0.0000931,-0.0878998,0.0884276,-0.0001668,0.000073
 5,-0.0001495,-0.1265952,0.1391329,0.0003052,0.0000811,0.0000725,-0.063
 1223,-0.0000404,0.0001066,-0.0000474,-0.1263115,0.0064199,-0.0756231,0
 .0000113,-0.0755868,-0.080471,0.0001085,0.000015,0.0001084,0.1263956,0
 .0062207,0.0766052,-0.0000872,0.0763889,-0.0823534,0.0001569,-0.000092
 8,0.000164,0.1264552,-0.1257515,-0.0003421,-0.0000821,-0.0002914,0.050
 2461,0.0000483,-0.0000762,0.0000468,0.1264785,0.0064097,-0.0756368,0.0
 000094,-0.0755848,-0.0804607,0.0001087,0.0000064,0.0001092,0.1263955,0
 .0062097,0.0766196,-0.0000872,0.0763874,-0.082345,0.0001587,-0.0000807
 ,0.0001514,0.1264555,-0.1257536,-0.0003385,-0.0000787,-0.000272,0.0502
 455,0.0000491,-0.0000873,0.0000506,0.1264788\Polar=81.1110531,0.017849
 9,81.1018521,0.0132723,-0.0267278,39.3504496\Quadrupole=1.8909802,1.89
 02981,-3.7812783,-0.0001351,0.0018105,-0.0036318\PG=C01 [X(C6H6)]\NIma
 g=0\\0.68703840,0.02632138,0.71748465,0.00015725,-0.00036994,0.1265284
 6,-0.34360483,-0.03273854,-0.00006776,0.68791837,0.03243042,-0.1231819
 1,0.00005274,-0.02574152,0.71781572,-0.00011010,0.00003203,-0.05720974
 ,0.00019550,-0.00038386,0.12650265,-0.02756952,-0.02885260,0.00000719,
 -0.17858545,-0.12824413,0.00004134,0.73280120,-0.07443975,0.03206388,-
 0.00003995,-0.06306799,-0.28857498,0.00012496,0.00022046,0.67212967,0.
 00003684,-0.00002525,0.00689494,-0.00000047,0.00010397,-0.05718458,0.0
 0019860,-0.00034757,0.12649037,-0.04959927,0.02947061,-0.00003144,0.06
 176448,0.02265457,0.00000312,-0.17810843,0.06290470,-0.00008006,0.6871
 2598,0.02946961,-0.01562027,0.00001328,-0.02292861,-0.05759321,0.00003
 422,0.12803866,-0.28840642,0.00019046,0.02637192,0.71739712,-0.0000319
 1,0.00001355,-0.00933638,0.00003235,0.00004812,0.00690843,-0.00012181,
 0.00016983,-0.05718576,0.00016486,-0.00037119,0.12652767,0.06176437,-0
 .02292947,0.00003184,-0.04967545,-0.02938712,0.00000585,-0.02782395,0.
 07445694,-0.00005877,-0.34369793,-0.03273770,-0.00007193,0.68800539,0.
 02265409,-0.05759361,0.00004882,-0.02938605,-0.01565482,-0.00000537,0.
 02886083,0.03198312,-0.00000663,0.03242963,-0.12317818,0.00005243,-0.0
 2579206,0.71772652,0.00000269,0.00003388,0.00691093,0.00000611,-0.0000
 0525,-0.00932297,-0.00002967,0.00000781,0.00689845,-0.00011305,0.00003
 158,-0.05720368,0.00019396,-0.00038858,0.12650786,-0.17812876,0.128079
 92,-0.00011934,-0.02782457,0.02886051,-0.00002941,0.00144648,-0.000052
 64,0.00000349,-0.02756919,-0.02885287,0.00000781,-0.17856409,-0.128203
 33,0.00004541,0.73280005,0.06294740,-0.28847511,0.00016672,0.07445658,
 0.03198379,0.00000757,-0.00005364,-0.06662511,0.00003654,-0.07444034,0
 .03206319,-0.00003978,-0.06302430,-0.28850483,0.00013082,0.00011886,0.
 67212853,-0.00007788,0.00018754,-0.05718086,-0.00005856,-0.00000702,0.
 00689880,0.00000348,0.00003679,-0.00933847,0.00003667,-0.00002545,0.00
 689711,0.00000356,0.00011034,-0.05719799,0.00018958,-0.00035106,0.1264
 9633,-0.12632493,-0.11868134,0.00004786,-0.01023363,-0.03019688,0.0000
 1569,-0.00650549,0.00162981,-0.00000545,-0.00095858,0.00111720,-0.0000
 0090,-0.00080505,0.00344259,-0.00000478,0.01097554,0.01549663,-0.00000
 698,0.13180206,-0.11868284,-0.26337537,0.00011005,0.00325237,0.0024856
 6,0.00000033,0.00015386,0.00212391,0.00000362,0.00111384,0.00032966,-0
 .00000012,0.00491253,-0.00357633,0.00000875,-0.01794659,-0.01870381,0.
 00000730,0.12828761,0.27993266,0.00004803,0.00011017,-0.03437142,-0.00
 000598,-0.00001014,0.00138188,-0.00000455,0.00000421,0.00770583,-0.000
 00070,-0.00000025,-0.00041714,-0.00000592,0.00000820,0.00770732,0.0000
 1438,0.00001775,0.00138571,-0.00004933,-0.00012363,0.02516676,-0.01021
 774,0.03019439,-0.00002307,-0.12634718,0.11875225,-0.00010548,0.010943
 80,-0.01549670,0.00001298,-0.00079987,-0.00344847,-0.00000058,-0.00095
 727,-0.00110860,0.00000054,-0.00651468,-0.00162672,-0.00000346,0.00132
 060,-0.00042434,0.00000191,0.13183439,-0.00327438,0.00246275,-0.000001
 68,0.11874639,-0.26352843,0.00018445,0.01798743,-0.01871088,0.00001871
 ,-0.00493058,-0.00358159,0.00000555,-0.00110976,0.00032733,-0.00000083
 ,-0.00015100,0.00212692,0.00000349,0.00042716,0.00085903,-0.00000286,-
 0.12836817,0.28012115,-0.00000134,0.00000870,0.00137971,-0.00010590,0.
 00018500,-0.03435088,-0.00000820,0.00000770,0.00138254,0.00000029,0.00
 000596,0.00771066,0.00000038,-0.00000082,-0.00041605,-0.00000428,0.000
 00327,0.00770771,0.00000131,-0.00000315,-0.00382380,0.00011631,-0.0002
 0412,0.02514685,0.00074214,-0.00403818,0.00000025,-0.01238579,0.004509
 49,-0.00000728,-0.33203566,-0.00002348,-0.00009733,-0.01234224,-0.0044
 9486,-0.00000152,0.00073607,0.00402845,-0.00000491,0.00097611,-0.00000
 077,0.00000045,-0.00085119,0.00025305,-0.00000055,0.00097806,-0.000228
 18,0.00000173,0.35415841,-0.00255657,-0.00511979,0.00000730,-0.0289511
 1,0.00461755,-0.00001142,-0.00001565,-0.05780377,0.00001484,0.02894762
 ,0.00460675,0.00000735,0.00255605,-0.00511996,0.00000901,0.00000293,-0
 .00160162,0.00000076,-0.00175957,0.00002328,-0.00000031,0.00062426,0.0
 0120410,-0.00000299,0.00001692,0.05773512,-0.00000062,0.00000672,0.007
 70673,0.00001380,-0.00000048,0.00138120,-0.00009693,0.00001478,-0.0343
 3980,-0.00002320,-0.00000346,0.00138531,-0.00000375,0.00000970,0.00770
 385,0.00000053,0.00000065,-0.00041807,0.00000069,0.00000031,0.00035613
 ,0.00000115,-0.00000326,-0.00382270,0.00010745,-0.00002073,0.02513882,
 -0.00095869,0.00111707,-0.00000088,-0.00080512,0.00344276,-0.00000502,
 0.01097505,0.01549643,-0.00000678,-0.12633955,-0.11869036,0.00004615,-
 0.01023304,-0.03019628,0.00001562,-0.00650487,0.00163004,-0.00000567,0
 .00015082,-0.00014675,0.00000067,0.00045648,0.00100807,-0.00000058,0.0
 0097346,-0.00062440,0.00000196,0.13181605,0.00111383,0.00032978,-0.000
 00013,0.00491260,-0.00357700,0.00000886,-0.01794706,-0.01870483,0.0000
 0703,-0.11869069,-0.26336062,0.00010857,0.00325262,0.00248658,0.000000
 31,0.00015403,0.00212405,0.00000366,-0.00014670,-0.00001917,-0.0000010
 7,-0.00100345,-0.00128256,0.00000069,0.00023060,0.00120306,-0.00000317
 ,0.12829566,0.27991851,-0.00000110,-0.00000001,-0.00041721,-0.00000578
 ,0.00000848,0.00770615,0.00001475,0.00001769,0.00138544,0.00004598,0.0
 0010859,-0.03437136,-0.00000564,-0.00001047,0.00138199,-0.00000467,0.0
 0000395,0.00770713,0.00000064,-0.00000108,-0.00162170,0.00000069,0.000
 00138,0.00035421,0.00000143,-0.00000340,-0.00382297,-0.00004767,-0.000
 12191,0.02516683,-0.00079996,-0.00344838,-0.00000040,-0.00095733,-0.00
 110853,0.00000053,-0.00651417,-0.00162704,-0.00000350,-0.01021700,0.03
 019400,-0.00002294,-0.12636190,0.11876104,-0.00010463,0.01094333,-0.01
 549670,0.00001292,0.00045648,-0.00100344,0.00000067,0.00015027,0.00014
 662,0.00000047,-0.00084686,0.00175898,-0.00000154,0.00132062,-0.000424
 50,0.00000190,0.13184841,-0.00493066,-0.00358227,0.00000574,-0.0011098
 0,0.00032740,-0.00000083,-0.00015122,0.00212703,0.00000353,-0.00327455
 ,0.00246361,-0.00000178,0.11875389,-0.26351306,0.00018373,0.01798814,-
 0.01871210,0.00001845,0.00100809,-0.00128257,0.00000136,0.00014657,-0.
 00001849,-0.00000099,-0.00025362,0.00002067,0.00000012,0.00042732,0.00
 085893,-0.00000285,-0.12837608,0.28010676,0.00000061,0.00000626,0.0077
 0894,0.00000067,-0.00000082,-0.00041560,-0.00000455,0.00000287,0.00770
 858,-0.00000191,0.00000912,0.00138018,-0.00010420,0.00018306,-0.034351
 50,-0.00000871,0.00000831,0.00138309,-0.00000063,0.00000076,0.00035419
 ,0.00000047,-0.00000097,-0.00162192,-0.00000024,0.00000078,0.00035367,
 0.00000140,-0.00000314,-0.00382460,0.00011544,-0.00020319,0.02514671,-
 0.01234119,-0.00449486,-0.00000150,0.00073650,0.00402819,-0.00000475,0
 .00097614,-0.00000075,0.00000044,0.00074162,-0.00403852,0.00000043,-0.
 01238714,0.00450970,-0.00000730,-0.33203535,-0.00000705,-0.00009412,0.
 00097338,0.00023071,0.00000137,-0.00084685,-0.00025361,-0.00000021,-0.
 00010251,0.00000053,0.00000047,-0.00085121,0.00025306,-0.00000055,0.00
 097811,-0.00022809,0.00000165,0.35415849,0.02894748,0.00460727,0.00000
 704,0.00255568,-0.00511977,0.00000904,0.00000306,-0.00160164,0.0000007
 5,-0.00255674,-0.00512005,0.00000750,-0.02895162,0.00461723,-0.0000112
 4,0.00000203,-0.05780390,0.00001520,-0.00062460,0.00120305,-0.00000343
 ,0.00175899,0.00002066,0.00000075,0.00000058,0.00023461,-0.00000119,-0
 .00175957,0.00002329,-0.00000037,0.00062402,0.00120408,-0.00000305,0.0
 0000069,0.05773516,-0.00002249,-0.00000364,0.00138589,-0.00000398,0.00
 000927,0.00770466,0.00000036,0.00000087,-0.00041755,-0.00000057,0.0000
 0715,0.00770496,0.00001463,-0.00000068,0.00138179,-0.00009481,0.000015
 26,-0.03434048,0.00000188,-0.00000314,-0.00382375,-0.00000147,0.000000
 13,0.00035367,0.00000051,-0.00000118,-0.00162217,0.00000080,0.00000028
 ,0.00035611,0.00000109,-0.00000330,-0.00382174,0.00010406,-0.00002101,
 0.02513860\\0.00001652,0.00005232,-0.00000008,-0.00000585,0.00007824,-
 0.00000218,-0.00003471,-0.00003275,0.00000175,-0.00004958,-0.00003332,
 -0.00000032,0.00003909,-0.00005919,-0.00000179,0.00003474,-0.00000548,
 0.00000184,-0.00002761,-0.00005815,0.00000033,0.00003134,-0.00005279,0
 .00000023,0.00006435,0.00000450,0.00000019,0.00003205,0.00005562,-0.00
 000005,-0.00003587,0.00005045,0.00000046,-0.00006448,0.00000057,-0.000
 00038\\\@
 The archive entry for this job was punched.


 TOM, TOM, THE BURGLAR'S SON
 STOLE A MACHINE AND AWAY HE RUN
 THE JOB WAS NEAT, BUT TOM GOT BEAT
 BY THE TIME HE GOT HOME IT WAS OBSOLETE.
 Job cpu time:       0 days  0 hours 28 minutes 46.7 seconds.
 Elapsed time:       0 days  0 hours  1 minutes  1.9 seconds.
 File lengths (MBytes):  RWF=     61 Int=      0 D2E=      0 Chk=      6 Scr=      1
 Normal termination of Gaussian 16 at Wed Nov 25 11:47:56 2020.
